/*--------------------------------*- C++ -*----------------------------------*\
| =========                 |                                                 |
| \\      /  F ield         | OpenFOAM: The Open Source CFD Toolbox           |
|  \\    /   O peration     | Version:  2212                                  |
|   \\  /    A nd           | Website:  www.openfoam.com                      |
|    \\/     M anipulation  |                                                 |
\*---------------------------------------------------------------------------*/
FoamFile
{
    version     2.0;
    format      ascii;
    arch        "LSB;label=32;scalar=64";
    class       volScalarField;
    location    "0";
    object      p;
}
// * * * * * * * * * * * * * * * * * * * * * * * * * * * * * * * * * * * * * //

dimensions      [0 2 -2 0 0 0 0];

internalField   nonuniform List<scalar> 
179928
(
-6.62236e-06
-2.32133e-06
-2.41508e-07
1.0725e-07
2.86932e-07
3.66927e-07
4.05328e-07
4.16087e-07
3.92196e-07
3.58786e-07
4.08308e-07
3.81144e-07
3.37425e-07
3.23167e-07
2.98316e-07
2.7958e-07
2.59447e-07
2.43051e-07
2.25705e-07
2.34808e-07
1.87171e-07
1.26852e-07
1.57491e-07
1.43074e-07
1.32272e-07
1.25676e-07
1.31621e-07
1.44741e-07
3.89271e-07
3.10568e-07
-2.73626e-06
-1.41899e-06
-3.14003e-07
1.09084e-07
2.95684e-07
3.75175e-07
4.06843e-07
4.12111e-07
4.0181e-07
3.88053e-07
3.84981e-07
3.72357e-07
3.44796e-07
3.22086e-07
2.998e-07
2.79295e-07
2.60388e-07
2.43786e-07
2.29387e-07
2.12375e-07
1.84021e-07
1.58277e-07
1.48902e-07
1.38691e-07
1.28496e-07
1.19664e-07
1.10737e-07
1.00445e-07
1.2179e-07
9.79344e-08
-2.26374e-06
-6.79151e-07
1.17822e-07
2.55539e-07
3.50446e-07
4.0071e-07
4.20868e-07
4.2083e-07
4.09599e-07
3.97653e-07
3.85543e-07
3.67845e-07
3.44619e-07
3.21898e-07
3.00321e-07
2.7976e-07
2.60454e-07
2.42231e-07
2.25479e-07
2.07362e-07
1.85582e-07
1.63451e-07
1.4839e-07
1.3703e-07
1.24062e-07
1.10547e-07
9.61242e-08
8.57914e-08
9.43352e-08
9.76837e-09
-1.55818e-06
-6.67752e-08
4.5533e-07
4.20423e-07
4.30078e-07
4.41901e-07
4.44622e-07
4.34985e-07
4.20267e-07
4.06028e-07
3.87309e-07
3.66965e-07
3.44324e-07
3.21891e-07
3.00324e-07
2.79539e-07
2.59678e-07
2.40537e-07
2.22418e-07
2.04083e-07
1.85035e-07
1.666e-07
1.47969e-07
1.36575e-07
1.22185e-07
1.07927e-07
9.7038e-08
1.0156e-07
1.20707e-07
-6.87807e-09
-1.00791e-06
2.48293e-07
6.10148e-07
5.40889e-07
5.07412e-07
4.87829e-07
4.72319e-07
4.55146e-07
4.33252e-07
4.11428e-07
3.90316e-07
3.67965e-07
3.44894e-07
3.22083e-07
3.00101e-07
2.78895e-07
2.58588e-07
2.38998e-07
2.20202e-07
2.01655e-07
1.83003e-07
1.65466e-07
1.51497e-07
1.36751e-07
1.22078e-07
1.08504e-07
1.01098e-07
9.39026e-08
1.0485e-07
2.88177e-08
-1.32922e-06
1.39205e-07
6.71131e-07
5.95488e-07
5.55711e-07
5.31456e-07
4.99468e-07
4.73523e-07
4.44794e-07
4.17501e-07
3.94061e-07
3.70001e-07
3.46082e-07
3.22461e-07
2.9983e-07
2.78103e-07
2.57411e-07
2.37591e-07
2.1849e-07
1.9975e-07
1.8114e-07
1.63794e-07
1.51658e-07
1.36867e-07
1.24289e-07
1.10741e-07
8.24251e-08
8.44056e-08
1.08845e-07
2.68555e-08
-1.68291e-06
-9.5986e-08
6.13871e-07
6.24719e-07
5.92551e-07
5.46144e-07
5.17409e-07
4.88703e-07
4.55807e-07
4.25465e-07
3.97168e-07
3.7181e-07
3.47096e-07
3.22763e-07
2.99459e-07
2.77233e-07
2.5612e-07
2.36019e-07
2.16591e-07
1.97293e-07
1.7973e-07
1.643e-07
1.51317e-07
1.37787e-07
1.16182e-07
1.03962e-07
1.00324e-07
8.91907e-08
9.72099e-08
1.82566e-08
-1.93184e-06
-2.99316e-07
5.31151e-07
6.03173e-07
5.98064e-07
5.6746e-07
5.2938e-07
4.95044e-07
4.63634e-07
4.31546e-07
4.01431e-07
3.73617e-07
3.47498e-07
3.22596e-07
2.98938e-07
2.76302e-07
2.5466e-07
2.34043e-07
2.14589e-07
1.96223e-07
1.79547e-07
1.64094e-07
1.50663e-07
1.34407e-07
1.23048e-07
1.1029e-07
9.87503e-08
8.90369e-08
9.46108e-08
1.87912e-08
-2.09992e-06
-4.27512e-07
4.65186e-07
5.72893e-07
5.90738e-07
5.67145e-07
5.35283e-07
5.01896e-07
4.67584e-07
4.34865e-07
4.03953e-07
3.74962e-07
3.47836e-07
3.22373e-07
2.98398e-07
2.75407e-07
2.53345e-07
2.32353e-07
2.13009e-07
1.95084e-07
1.78697e-07
1.63545e-07
1.51138e-07
1.38805e-07
1.23937e-07
1.15204e-07
1.03033e-07
9.01292e-08
9.85559e-08
2.20997e-08
-2.21682e-06
-4.79871e-07
4.35352e-07
5.46772e-07
5.70936e-07
5.59316e-07
5.33261e-07
5.02496e-07
4.69312e-07
4.36361e-07
4.05151e-07
3.75839e-07
3.47998e-07
3.22106e-07
2.97828e-07
2.74544e-07
2.52159e-07
2.30972e-07
2.11663e-07
1.93962e-07
1.7767e-07
1.6339e-07
1.51236e-07
1.39054e-07
1.26907e-07
1.16149e-07
1.07035e-07
1.05123e-07
1.11636e-07
5.29308e-09
-2.22728e-06
-5.08214e-07
3.97757e-07
5.10256e-07
5.47322e-07
5.46197e-07
5.27384e-07
5.00173e-07
4.68797e-07
4.36617e-07
4.05675e-07
3.76031e-07
3.48048e-07
3.21862e-07
2.97261e-07
2.73732e-07
2.51163e-07
2.29939e-07
2.10511e-07
1.92855e-07
1.76911e-07
1.63006e-07
1.51143e-07
1.39712e-07
1.27945e-07
1.15877e-07
1.04847e-07
1.01019e-07
1.13502e-07
-1.03348e-08
-2.17926e-06
-5.80165e-07
3.29394e-07
4.732e-07
5.25034e-07
5.3277e-07
5.19743e-07
4.96261e-07
4.67103e-07
4.36123e-07
4.05316e-07
3.75885e-07
3.48019e-07
3.21685e-07
2.968e-07
2.73068e-07
2.50423e-07
2.29197e-07
2.0964e-07
1.91828e-07
1.76105e-07
1.62672e-07
1.51024e-07
1.40292e-07
1.28666e-07
1.16808e-07
1.06935e-07
1.02664e-07
7.67049e-08
-1.49236e-08
-2.22393e-06
-6.75674e-07
2.6268e-07
4.38562e-07
5.04677e-07
5.20191e-07
5.12013e-07
4.91972e-07
4.65082e-07
4.35024e-07
4.04711e-07
3.75617e-07
3.47938e-07
3.21611e-07
2.96579e-07
2.72705e-07
2.49995e-07
2.28694e-07
2.09001e-07
1.91092e-07
1.75449e-07
1.62328e-07
1.51089e-07
1.40518e-07
1.29177e-07
1.17156e-07
1.06655e-07
9.69476e-08
6.62376e-08
1.31841e-08
-2.27138e-06
-7.41865e-07
2.11012e-07
4.09082e-07
4.87109e-07
5.09307e-07
5.05452e-07
4.88224e-07
4.63036e-07
4.33939e-07
4.04179e-07
3.75445e-07
3.47992e-07
3.21758e-07
2.96684e-07
2.72722e-07
2.49933e-07
2.28513e-07
2.08674e-07
1.90679e-07
1.7506e-07
1.62117e-07
1.51104e-07
1.40764e-07
1.29527e-07
1.17311e-07
1.06847e-07
9.75606e-08
6.88189e-08
1.10913e-08
-2.32208e-06
-7.81729e-07
1.81933e-07
3.89184e-07
4.74438e-07
5.01402e-07
5.00721e-07
4.85527e-07
4.61634e-07
4.33249e-07
4.03956e-07
3.75563e-07
3.48356e-07
3.22248e-07
2.97189e-07
2.73175e-07
2.50297e-07
2.28742e-07
2.08737e-07
1.90602e-07
1.74947e-07
1.62098e-07
1.51252e-07
1.40941e-07
1.2976e-07
1.17681e-07
1.07593e-07
9.87922e-08
6.7851e-08
9.97044e-09
-2.34969e-06
-8.00093e-07
1.70558e-07
3.80318e-07
4.68315e-07
4.97494e-07
4.98454e-07
4.84436e-07
4.61192e-07
4.33266e-07
4.04284e-07
3.76128e-07
3.49118e-07
3.23148e-07
2.98145e-07
2.74102e-07
2.51116e-07
2.29398e-07
2.09209e-07
1.90913e-07
1.75163e-07
1.62277e-07
1.51453e-07
1.41185e-07
1.29838e-07
1.18018e-07
1.08131e-07
9.93359e-08
6.81697e-08
1.01394e-08
-2.34612e-06
-7.92612e-07
1.74574e-07
3.82266e-07
4.69117e-07
4.98082e-07
4.99063e-07
4.85023e-07
4.6193e-07
4.34156e-07
4.05295e-07
3.77232e-07
3.50324e-07
3.24482e-07
2.99569e-07
2.75508e-07
2.52388e-07
2.30473e-07
2.10091e-07
1.91636e-07
1.75733e-07
1.62684e-07
1.51644e-07
1.4125e-07
1.30078e-07
1.18124e-07
1.0821e-07
9.93258e-08
6.85675e-08
1.05107e-08
-2.30775e-06
-7.61436e-07
1.97511e-07
3.9482e-07
4.76209e-07
5.02709e-07
5.02316e-07
4.8747e-07
4.63875e-07
4.35905e-07
4.06958e-07
3.78865e-07
3.51991e-07
3.26249e-07
3.01437e-07
2.77366e-07
2.54093e-07
2.31966e-07
2.11375e-07
1.9272e-07
1.76611e-07
1.63306e-07
1.51974e-07
1.41305e-07
1.29954e-07
1.18018e-07
1.08047e-07
9.91897e-08
6.88163e-08
1.1125e-08
-2.26139e-06
-6.93434e-07
2.40336e-07
4.15505e-07
4.88147e-07
5.10617e-07
5.08032e-07
4.91388e-07
4.6684e-07
4.38389e-07
4.09206e-07
3.80974e-07
3.54062e-07
3.28381e-07
3.03684e-07
2.79617e-07
2.56177e-07
2.33828e-07
2.1303e-07
1.94148e-07
1.7778e-07
1.64128e-07
1.5234e-07
1.41397e-07
1.29578e-07
1.17536e-07
1.07156e-07
9.83115e-08
7.44784e-08
1.23388e-08
-2.24393e-06
-6.13644e-07
2.9519e-07
4.42425e-07
5.04133e-07
5.21198e-07
5.1542e-07
4.96688e-07
4.70375e-07
4.41315e-07
4.11953e-07
3.83456e-07
3.5639e-07
3.30762e-07
3.06228e-07
2.82189e-07
2.58573e-07
2.35963e-07
2.14986e-07
1.95946e-07
1.79206e-07
1.64945e-07
1.52893e-07
1.4145e-07
1.29332e-07
1.16867e-07
1.05832e-07
9.91588e-08
8.43811e-08
9.14816e-09
-2.28819e-06
-5.61218e-07
3.50038e-07
4.73505e-07
5.23523e-07
5.33766e-07
5.23585e-07
5.02257e-07
4.74351e-07
4.44323e-07
4.14867e-07
3.86207e-07
3.58889e-07
3.33322e-07
3.08955e-07
2.84952e-07
2.61219e-07
2.38344e-07
2.17243e-07
1.98074e-07
1.80721e-07
1.65845e-07
1.53392e-07
1.41449e-07
1.29427e-07
1.17058e-07
1.05868e-07
9.96941e-08
9.20914e-08
-1.15256e-09
-2.07179e-06
-4.72961e-07
3.68196e-07
5.00229e-07
5.45206e-07
5.47051e-07
5.30818e-07
5.0658e-07
4.77782e-07
4.47767e-07
4.17746e-07
3.88924e-07
3.61564e-07
3.36032e-07
3.11704e-07
2.87728e-07
2.6402e-07
2.41039e-07
2.19792e-07
2.00316e-07
1.82759e-07
1.67031e-07
1.53354e-07
1.40645e-07
1.28895e-07
1.18437e-07
1.07792e-07
9.55196e-08
8.76108e-08
1.97866e-09
-1.96783e-06
-3.95948e-07
4.06518e-07
5.20693e-07
5.62141e-07
5.58435e-07
5.3757e-07
5.09306e-07
4.8068e-07
4.50079e-07
4.19927e-07
3.9114e-07
3.64202e-07
3.38769e-07
3.14407e-07
2.90467e-07
2.66875e-07
2.43963e-07
2.22332e-07
2.02402e-07
1.84221e-07
1.68744e-07
1.53289e-07
1.39593e-07
1.27488e-07
1.17515e-07
1.00749e-07
8.64193e-08
9.07846e-08
1.51931e-08
-2.01517e-06
-3.78018e-07
4.52061e-07
5.52773e-07
5.77065e-07
5.64298e-07
5.4069e-07
5.11415e-07
4.80579e-07
4.49958e-07
4.20791e-07
3.92969e-07
3.66734e-07
3.41429e-07
3.17032e-07
2.93143e-07
2.69737e-07
2.47036e-07
2.25121e-07
2.04162e-07
1.85057e-07
1.68086e-07
1.53927e-07
1.40425e-07
1.28419e-07
1.11319e-07
1.01078e-07
8.82429e-08
9.44425e-08
1.72678e-08
-2.07686e-06
-3.75068e-07
4.90775e-07
5.74609e-07
5.8513e-07
5.66489e-07
5.38569e-07
5.10026e-07
4.79624e-07
4.48829e-07
4.21036e-07
3.94834e-07
3.69033e-07
3.43816e-07
3.1952e-07
2.95681e-07
2.72505e-07
2.50019e-07
2.28236e-07
2.06704e-07
1.86085e-07
1.6842e-07
1.5451e-07
1.40304e-07
1.25263e-07
1.15305e-07
1.00609e-07
8.80921e-08
9.67968e-08
1.72671e-08
-2.10796e-06
-3.62544e-07
5.16513e-07
5.81185e-07
5.80093e-07
5.62095e-07
5.3203e-07
5.04173e-07
4.75584e-07
4.48949e-07
4.22511e-07
3.96206e-07
3.70612e-07
3.45722e-07
3.2169e-07
2.98023e-07
2.74952e-07
2.52487e-07
2.309e-07
2.10006e-07
1.90191e-07
1.7073e-07
1.54549e-07
1.3863e-07
1.26361e-07
1.15324e-07
9.95301e-08
9.02328e-08
9.87267e-08
1.61015e-08
-2.06565e-06
-3.24234e-07
5.12044e-07
5.58361e-07
5.57992e-07
5.48252e-07
5.20945e-07
4.95301e-07
4.71443e-07
4.49231e-07
4.2372e-07
3.97942e-07
3.7224e-07
3.47468e-07
3.23589e-07
3.00078e-07
2.77179e-07
2.54955e-07
2.33939e-07
2.13764e-07
1.94224e-07
1.74707e-07
1.54306e-07
1.38798e-07
1.30498e-07
1.16501e-07
9.08583e-08
9.20108e-08
1.0338e-07
1.75168e-08
-2.03092e-06
-3.26462e-07
4.38375e-07
4.96676e-07
5.2508e-07
5.18367e-07
5.09011e-07
4.90905e-07
4.67884e-07
4.47799e-07
4.24532e-07
4.0027e-07
3.74198e-07
3.49048e-07
3.25083e-07
3.01591e-07
2.79025e-07
2.57441e-07
2.3753e-07
2.17646e-07
1.9722e-07
1.76655e-07
1.56565e-07
1.41149e-07
1.21822e-07
1.15862e-07
1.13437e-07
1.14654e-07
9.01583e-08
2.95597e-08
-2.09693e-06
-5.873e-07
2.19273e-07
4.08608e-07
4.85166e-07
5.04877e-07
5.00147e-07
4.86091e-07
4.64449e-07
4.4426e-07
4.26045e-07
4.03715e-07
3.76171e-07
3.5018e-07
3.25995e-07
3.02143e-07
2.80122e-07
2.59597e-07
2.41452e-07
2.22326e-07
1.98777e-07
1.75811e-07
1.57867e-07
1.37833e-07
1.17122e-07
1.3553e-07
1.38524e-07
1.28891e-07
1.41831e-07
7.29311e-08
-4.50727e-06
-1.84296e-06
4.63179e-08
3.93283e-07
4.73058e-07
5.01449e-07
4.99977e-07
4.85794e-07
4.58086e-07
4.35415e-07
4.31126e-07
4.11861e-07
3.7615e-07
3.50523e-07
3.26319e-07
3.01396e-07
2.80062e-07
2.60474e-07
2.44519e-07
2.34317e-07
1.95526e-07
1.7011e-07
1.59466e-07
1.44716e-07
9.71048e-08
1.59831e-07
1.81265e-07
2.03405e-07
2.89294e-07
2.64528e-07
-3.17812e-06
-1.50207e-06
-3.40997e-07
8.22755e-08
2.82459e-07
3.68863e-07
4.03787e-07
4.09632e-07
3.97453e-07
3.90539e-07
3.89577e-07
3.69136e-07
3.44457e-07
3.21257e-07
2.99166e-07
2.79324e-07
2.60275e-07
2.43451e-07
2.27107e-07
2.13073e-07
1.88786e-07
1.57042e-07
1.46766e-07
1.37787e-07
1.28012e-07
1.17875e-07
1.10869e-07
1.09788e-07
1.44616e-07
6.82131e-08
-5.18031e-07
-7.56413e-07
-3.39174e-07
9.98851e-08
2.94505e-07
3.75946e-07
4.06913e-07
4.11749e-07
4.04423e-07
3.96436e-07
3.84415e-07
3.66268e-07
3.4484e-07
3.22e-07
2.99851e-07
2.79498e-07
2.6071e-07
2.4363e-07
2.25943e-07
2.06981e-07
1.87269e-07
1.64088e-07
1.47421e-07
1.35791e-07
1.24918e-07
1.12649e-07
9.63851e-08
6.784e-08
3.52379e-08
8.86597e-08
9.97497e-08
8.84445e-09
7.72835e-08
2.43475e-07
3.4932e-07
4.01355e-07
4.20487e-07
4.21298e-07
4.14641e-07
4.00712e-07
3.8344e-07
3.65895e-07
3.43767e-07
3.21892e-07
3.00366e-07
2.79815e-07
2.60529e-07
2.41669e-07
2.23778e-07
2.04487e-07
1.84379e-07
1.67536e-07
1.49572e-07
1.33996e-07
1.20575e-07
1.04983e-07
8.38e-08
5.41808e-08
2.56688e-08
4.87071e-08
1.58265e-06
7.56802e-07
3.7718e-07
3.99821e-07
4.27869e-07
4.42583e-07
4.4425e-07
4.36892e-07
4.25139e-07
4.0546e-07
3.86252e-07
3.65987e-07
3.43561e-07
3.21844e-07
3.00384e-07
2.79581e-07
2.59683e-07
2.39988e-07
2.21096e-07
2.02778e-07
1.82911e-07
1.67448e-07
1.50879e-07
1.33868e-07
1.1878e-07
1.02143e-07
8.19874e-08
5.92345e-08
3.42163e-08
4.28322e-08
1.7361e-06
1.03846e-06
5.78256e-07
5.25783e-07
5.06616e-07
4.89317e-07
4.74237e-07
4.55788e-07
4.34776e-07
4.12147e-07
3.9008e-07
3.67144e-07
3.44395e-07
3.21984e-07
3.00096e-07
2.78906e-07
2.58489e-07
2.3853e-07
2.19165e-07
2.0053e-07
1.82541e-07
1.65519e-07
1.50613e-07
1.35399e-07
1.19858e-07
1.02397e-07
8.56123e-08
5.44977e-08
3.76617e-08
4.64487e-08
1.28446e-06
8.69466e-07
6.46751e-07
6.04642e-07
5.5245e-07
5.31448e-07
5.02981e-07
4.73379e-07
4.45465e-07
4.19479e-07
3.9361e-07
3.69238e-07
3.45433e-07
3.22212e-07
2.99752e-07
2.78093e-07
2.57202e-07
2.36945e-07
2.17378e-07
1.98514e-07
1.81096e-07
1.65168e-07
1.49356e-07
1.36113e-07
1.23454e-07
9.74878e-08
7.63458e-08
6.79839e-08
4.15406e-08
3.67283e-08
9.23676e-07
6.28931e-07
5.89859e-07
6.25324e-07
5.9477e-07
5.49292e-07
5.19881e-07
4.90146e-07
4.56649e-07
4.24919e-07
3.97425e-07
3.71485e-07
3.46321e-07
3.22317e-07
2.99343e-07
2.77228e-07
2.55826e-07
2.35152e-07
2.15525e-07
1.96932e-07
1.79137e-07
1.63911e-07
1.50871e-07
1.37239e-07
1.14052e-07
9.96751e-08
8.83761e-08
6.9678e-08
3.75143e-08
3.27581e-08
6.06896e-07
4.27611e-07
5.20055e-07
6.06851e-07
6.00021e-07
5.69476e-07
5.31614e-07
4.96367e-07
4.64622e-07
4.31565e-07
4.00878e-07
3.72982e-07
3.47006e-07
3.22347e-07
2.98819e-07
2.76241e-07
2.54411e-07
2.33481e-07
2.13492e-07
1.94993e-07
1.78578e-07
1.63776e-07
1.50153e-07
1.33025e-07
1.21032e-07
1.04033e-07
8.77901e-08
6.93945e-08
3.85111e-08
3.30886e-08
4.66356e-07
3.39723e-07
4.65687e-07
5.75383e-07
5.88772e-07
5.6681e-07
5.37974e-07
5.03651e-07
4.68333e-07
4.35305e-07
4.03706e-07
3.73993e-07
3.47174e-07
3.22197e-07
2.9826e-07
2.75253e-07
2.5309e-07
2.31761e-07
2.11454e-07
1.9358e-07
1.779e-07
1.62892e-07
1.50424e-07
1.38143e-07
1.21709e-07
1.04824e-07
8.91345e-08
6.9424e-08
4.10589e-08
3.63942e-08
6.04433e-07
3.32227e-07
4.0508e-07
5.36419e-07
5.70692e-07
5.61436e-07
5.36144e-07
5.04658e-07
4.70552e-07
4.36875e-07
4.04841e-07
3.7476e-07
3.47198e-07
3.21745e-07
2.97671e-07
2.74359e-07
2.5182e-07
2.30134e-07
2.10158e-07
1.92348e-07
1.76674e-07
1.62769e-07
1.50889e-07
1.38837e-07
1.25357e-07
1.09665e-07
8.98459e-08
6.61101e-08
3.9407e-08
4.10623e-08
4.89045e-07
2.56118e-07
3.52757e-07
5.04708e-07
5.51274e-07
5.49352e-07
5.3023e-07
5.02634e-07
4.70274e-07
4.36939e-07
4.05071e-07
3.75306e-07
3.47254e-07
3.21203e-07
2.9691e-07
2.73407e-07
2.50544e-07
2.28906e-07
2.0936e-07
1.91464e-07
1.75571e-07
1.62194e-07
1.50961e-07
1.39542e-07
1.26372e-07
1.11835e-07
9.33011e-08
6.3468e-08
3.03626e-08
4.20328e-08
2.33975e-07
1.20614e-07
3.03007e-07
4.73852e-07
5.30495e-07
5.36707e-07
5.2299e-07
4.98983e-07
4.68595e-07
4.36016e-07
4.04849e-07
3.75199e-07
3.47219e-07
3.20928e-07
2.96202e-07
2.72494e-07
2.49598e-07
2.28143e-07
2.08477e-07
1.90675e-07
1.7476e-07
1.61599e-07
1.50942e-07
1.40137e-07
1.27337e-07
1.12902e-07
9.47451e-08
6.70153e-08
2.66457e-08
3.28556e-08
-6.44045e-08
-2.30111e-08
2.56468e-07
4.43499e-07
5.11356e-07
5.24543e-07
5.15575e-07
4.94756e-07
4.66286e-07
4.35185e-07
4.04245e-07
3.74853e-07
3.47082e-07
3.2075e-07
2.95809e-07
2.71926e-07
2.49036e-07
2.27547e-07
2.07766e-07
1.89827e-07
1.74344e-07
1.61532e-07
1.50906e-07
1.40436e-07
1.2779e-07
1.12973e-07
9.23761e-08
6.29429e-08
3.99182e-08
3.15015e-08
-1.79343e-07
-1.07223e-07
2.12353e-07
4.16776e-07
4.9457e-07
5.13766e-07
5.09052e-07
4.90908e-07
4.64464e-07
4.34258e-07
4.03646e-07
3.7467e-07
3.47071e-07
3.20818e-07
2.95785e-07
2.71794e-07
2.48867e-07
2.27289e-07
2.07378e-07
1.89363e-07
1.73899e-07
1.61753e-07
1.51053e-07
1.40651e-07
1.2799e-07
1.13184e-07
9.26817e-08
6.44521e-08
4.27826e-08
3.09523e-08
-2.01696e-07
-1.39378e-07
1.83152e-07
3.97313e-07
4.82079e-07
5.05928e-07
5.04442e-07
4.88372e-07
4.63132e-07
4.33589e-07
4.03375e-07
3.74773e-07
3.47442e-07
3.21276e-07
2.96215e-07
2.7216e-07
2.49171e-07
2.27497e-07
2.07442e-07
1.89227e-07
1.7375e-07
1.61809e-07
1.51321e-07
1.40936e-07
1.2817e-07
1.13588e-07
9.35219e-08
6.56113e-08
4.35488e-08
3.05061e-08
-2.14151e-07
-1.52021e-07
1.71136e-07
3.88248e-07
4.75953e-07
5.02119e-07
5.02279e-07
4.87292e-07
4.62742e-07
4.33629e-07
4.03692e-07
3.7533e-07
3.48214e-07
3.22178e-07
2.97165e-07
2.73076e-07
2.49982e-07
2.28153e-07
2.0791e-07
1.89512e-07
1.73965e-07
1.62022e-07
1.51546e-07
1.41113e-07
1.2835e-07
1.13912e-07
9.40664e-08
6.62143e-08
4.39534e-08
3.04429e-08
-2.09686e-07
-1.50234e-07
1.73931e-07
3.89978e-07
4.76822e-07
5.02764e-07
5.0287e-07
4.87909e-07
4.63476e-07
4.34525e-07
4.04763e-07
3.76466e-07
3.49411e-07
3.23537e-07
2.98648e-07
2.74548e-07
2.51295e-07
2.29228e-07
2.08783e-07
1.9029e-07
1.7456e-07
1.62396e-07
1.51697e-07
1.41194e-07
1.28451e-07
1.14005e-07
9.41794e-08
6.63516e-08
4.41304e-08
3.06099e-08
-1.89104e-07
-1.1956e-07
1.9482e-07
4.01161e-07
4.83648e-07
5.07539e-07
5.06213e-07
4.90328e-07
4.65326e-07
4.36265e-07
4.06477e-07
3.78108e-07
3.51116e-07
3.25374e-07
3.00634e-07
2.76537e-07
2.5309e-07
2.30768e-07
2.10079e-07
1.914e-07
1.75501e-07
1.62895e-07
1.51889e-07
1.41182e-07
1.28384e-07
1.13825e-07
9.4069e-08
6.59784e-08
4.40505e-08
3.11721e-08
-1.19775e-09
-2.69124e-08
2.22553e-07
4.18309e-07
4.94894e-07
5.1557e-07
5.11891e-07
4.94549e-07
4.68254e-07
4.38467e-07
4.08838e-07
3.80272e-07
3.53273e-07
3.27611e-07
3.03034e-07
2.78965e-07
2.55294e-07
2.32719e-07
2.11804e-07
1.92919e-07
1.76643e-07
1.63178e-07
1.52379e-07
1.41274e-07
1.28035e-07
1.13364e-07
9.43599e-08
6.51954e-08
4.2476e-08
3.33486e-08
2.68401e-07
9.03407e-08
2.52833e-07
4.41082e-07
5.10203e-07
5.25887e-07
5.19092e-07
4.9958e-07
4.72128e-07
4.41601e-07
4.11459e-07
3.82821e-07
3.55635e-07
3.30083e-07
3.0578e-07
2.81764e-07
2.57837e-07
2.34908e-07
2.13832e-07
1.94675e-07
1.77811e-07
1.64145e-07
1.52927e-07
1.41295e-07
1.27685e-07
1.12778e-07
9.41644e-08
6.42329e-08
4.01322e-08
3.66412e-08
3.50632e-07
1.71771e-07
3.03292e-07
4.6674e-07
5.27478e-07
5.3796e-07
5.26854e-07
5.05009e-07
4.76085e-07
4.45042e-07
4.14546e-07
3.85339e-07
3.58103e-07
3.32811e-07
3.08744e-07
2.84722e-07
2.60736e-07
2.37356e-07
2.15919e-07
1.96487e-07
1.79577e-07
1.65258e-07
1.53362e-07
1.41198e-07
1.27625e-07
1.12476e-07
9.17094e-08
6.41411e-08
3.88395e-08
3.78866e-08
4.79573e-07
2.57964e-07
3.50228e-07
4.98359e-07
5.45254e-07
5.48953e-07
5.34091e-07
5.09317e-07
4.7939e-07
4.48494e-07
4.17709e-07
3.87784e-07
3.60854e-07
3.35865e-07
3.11546e-07
2.87527e-07
2.6372e-07
2.40428e-07
2.18061e-07
1.98659e-07
1.81894e-07
1.66432e-07
1.53245e-07
1.40248e-07
1.26813e-07
1.09472e-07
9.06457e-08
6.81172e-08
3.80096e-08
3.43406e-08
5.82932e-07
3.32273e-07
3.97485e-07
5.28652e-07
5.64502e-07
5.594e-07
5.40173e-07
5.11433e-07
4.8176e-07
4.5078e-07
4.19776e-07
3.90443e-07
3.63739e-07
3.38547e-07
3.14251e-07
2.90317e-07
2.66557e-07
2.43384e-07
2.21079e-07
2.01009e-07
1.83525e-07
1.68048e-07
1.52335e-07
1.38799e-07
1.24981e-07
1.08655e-07
9.10894e-08
6.84111e-08
3.69667e-08
3.19543e-08
6.04782e-07
3.77141e-07
4.44706e-07
5.57569e-07
5.79708e-07
5.68247e-07
5.43521e-07
5.12916e-07
4.81733e-07
4.50342e-07
4.20509e-07
3.92763e-07
3.66202e-07
3.41091e-07
3.16911e-07
2.93094e-07
2.69419e-07
2.46295e-07
2.24271e-07
2.03461e-07
1.84183e-07
1.67886e-07
1.52935e-07
1.39123e-07
1.26008e-07
1.09643e-07
8.98411e-08
6.79972e-08
3.58652e-08
3.13465e-08
6.03312e-07
4.2003e-07
4.89781e-07
5.7946e-07
5.8879e-07
5.68896e-07
5.41692e-07
5.09935e-07
4.8042e-07
4.5032e-07
4.21616e-07
3.9439e-07
3.68277e-07
3.4346e-07
3.19392e-07
2.95657e-07
2.72183e-07
2.49157e-07
2.27064e-07
2.06074e-07
1.86499e-07
1.69019e-07
1.53084e-07
1.38902e-07
1.25358e-07
1.09949e-07
9.12034e-08
6.71356e-08
3.5303e-08
3.1335e-08
6.15865e-07
4.66284e-07
5.23414e-07
5.85415e-07
5.84572e-07
5.63368e-07
5.328e-07
5.04563e-07
4.77296e-07
4.50891e-07
4.22638e-07
3.95674e-07
3.70171e-07
3.45589e-07
3.21634e-07
2.98006e-07
2.74762e-07
2.51958e-07
2.29913e-07
2.08885e-07
1.90245e-07
1.71736e-07
1.5358e-07
1.37814e-07
1.23533e-07
1.10759e-07
9.17205e-08
6.709e-08
3.58047e-08
3.2044e-08
7.75483e-07
5.42883e-07
5.2054e-07
5.61597e-07
5.61659e-07
5.46505e-07
5.1962e-07
4.98011e-07
4.75708e-07
4.49276e-07
4.23643e-07
3.97239e-07
3.71653e-07
3.47424e-07
3.23629e-07
3.0011e-07
2.77112e-07
2.54425e-07
2.32729e-07
2.12727e-07
1.93007e-07
1.7492e-07
1.5697e-07
1.37778e-07
1.24985e-07
1.1251e-07
8.49402e-08
6.68678e-08
4.21167e-08
3.41477e-08
9.55282e-07
5.87381e-07
4.47995e-07
4.98183e-07
5.22419e-07
5.22431e-07
5.07668e-07
4.91726e-07
4.73055e-07
4.48413e-07
4.23045e-07
3.99252e-07
3.73481e-07
3.49141e-07
3.2519e-07
3.01681e-07
2.79104e-07
2.56932e-07
2.36114e-07
2.15638e-07
1.94932e-07
1.78229e-07
1.58486e-07
1.3762e-07
1.21247e-07
1.19624e-07
1.01315e-07
7.75844e-08
3.33824e-08
3.94668e-08
1.18651e-06
4.50418e-07
2.32976e-07
4.05237e-07
4.86473e-07
5.05361e-07
4.98919e-07
4.86183e-07
4.68266e-07
4.47866e-07
4.2397e-07
4.00878e-07
3.75805e-07
3.50455e-07
3.26045e-07
3.02396e-07
2.80367e-07
2.59338e-07
2.39507e-07
2.17916e-07
1.98127e-07
1.78614e-07
1.5782e-07
1.3688e-07
1.23e-07
1.27729e-07
1.20007e-07
9.35953e-08
5.79403e-08
6.62139e-08
2.02727e-07
-4.93882e-07
5.69077e-09
3.71668e-07
4.76295e-07
5.00865e-07
4.97433e-07
4.83978e-07
4.63524e-07
4.41889e-07
4.2866e-07
4.04711e-07
3.77724e-07
3.50801e-07
3.25912e-07
3.02335e-07
2.8037e-07
2.60992e-07
2.42274e-07
2.24556e-07
1.98592e-07
1.73997e-07
1.58491e-07
1.38683e-07
1.20539e-07
1.40235e-07
1.54759e-07
1.48381e-07
9.95475e-08
1.67292e-07
-2.81298e-06
-1.12347e-06
-1.1104e-07
1.62847e-07
3.1095e-07
3.8109e-07
4.08303e-07
4.12742e-07
4.06322e-07
3.95905e-07
3.83203e-07
3.66373e-07
3.4383e-07
3.21286e-07
2.99167e-07
2.78819e-07
2.60056e-07
2.42452e-07
2.25333e-07
2.07008e-07
1.85206e-07
1.64836e-07
1.47253e-07
1.33663e-07
1.21226e-07
1.08242e-07
9.32824e-08
8.5096e-08
9.83793e-08
1.7878e-08
-2.43156e-07
-3.57314e-07
-9.71565e-08
1.77814e-07
3.21234e-07
3.87484e-07
4.12236e-07
4.15769e-07
4.09916e-07
3.99626e-07
3.82437e-07
3.63233e-07
3.44677e-07
3.21783e-07
2.99417e-07
2.79005e-07
2.60077e-07
2.43156e-07
2.23563e-07
2.02894e-07
1.85876e-07
1.66763e-07
1.477e-07
1.3233e-07
1.19482e-07
1.03618e-07
8.25595e-08
5.39967e-08
2.29327e-08
4.9665e-08
7.76201e-07
5.23262e-07
2.82865e-07
3.05537e-07
3.72662e-07
4.12118e-07
4.25977e-07
4.2564e-07
4.16905e-07
4.02777e-07
3.8397e-07
3.63501e-07
3.43687e-07
3.216e-07
2.99791e-07
2.79239e-07
2.5972e-07
2.41407e-07
2.21416e-07
2.01557e-07
1.84523e-07
1.6651e-07
1.48771e-07
1.31373e-07
1.16091e-07
9.79887e-08
7.29459e-08
4.28349e-08
2.96338e-08
3.099e-08
2.01659e-06
1.22976e-06
5.87819e-07
4.62285e-07
4.52581e-07
4.54054e-07
4.49915e-07
4.40756e-07
4.26884e-07
4.0809e-07
3.86692e-07
3.63118e-07
3.42492e-07
3.22245e-07
3.00236e-07
2.7925e-07
2.59598e-07
2.39619e-07
2.1775e-07
1.99616e-07
1.832e-07
1.66419e-07
1.49175e-07
1.31283e-07
1.1486e-07
9.68357e-08
7.24445e-08
4.73911e-08
3.3129e-08
2.16209e-08
1.92488e-06
1.4029e-06
7.91406e-07
5.92631e-07
5.31929e-07
5.01892e-07
4.80432e-07
4.59177e-07
4.37884e-07
4.14233e-07
3.8859e-07
3.65115e-07
3.43629e-07
3.2209e-07
2.99965e-07
2.78676e-07
2.58269e-07
2.37924e-07
2.1694e-07
1.96953e-07
1.80816e-07
1.6551e-07
1.48926e-07
1.32736e-07
1.16569e-07
9.73896e-08
7.32752e-08
4.74102e-08
3.38046e-08
2.38103e-08
1.53255e-06
1.24044e-06
8.54005e-07
6.67317e-07
5.84084e-07
5.47409e-07
5.11439e-07
4.77901e-07
4.48432e-07
4.19566e-07
3.92271e-07
3.67984e-07
3.44564e-07
3.21986e-07
2.99593e-07
2.77893e-07
2.56799e-07
2.36008e-07
2.15431e-07
1.95869e-07
1.78319e-07
1.63512e-07
1.48479e-07
1.35033e-07
1.22777e-07
9.71792e-08
6.34009e-08
5.09195e-08
4.06662e-08
2.18149e-08
1.19327e-06
1.02294e-06
8.12501e-07
7.03554e-07
6.27902e-07
5.64952e-07
5.28719e-07
4.94755e-07
4.56821e-07
4.24922e-07
3.97123e-07
3.70471e-07
3.45286e-07
3.21524e-07
2.99142e-07
2.77056e-07
2.5524e-07
2.33607e-07
2.13464e-07
1.94857e-07
1.77707e-07
1.60949e-07
1.48316e-07
1.37003e-07
1.13188e-07
9.70167e-08
8.07666e-08
5.8087e-08
3.49062e-08
1.91157e-08
8.84901e-07
8.62933e-07
7.70064e-07
6.9159e-07
6.33929e-07
5.8505e-07
5.40159e-07
4.99911e-07
4.66414e-07
4.30955e-07
3.99912e-07
3.72019e-07
3.45615e-07
3.21298e-07
2.98524e-07
2.75996e-07
2.53671e-07
2.31641e-07
2.11141e-07
1.92933e-07
1.76409e-07
1.62107e-07
1.48302e-07
1.31486e-07
1.19886e-07
1.01371e-07
8.11256e-08
5.74595e-08
3.65277e-08
1.96882e-08
9.85718e-07
8.81629e-07
7.29543e-07
6.61639e-07
6.22798e-07
5.82212e-07
5.44979e-07
5.07473e-07
4.71332e-07
4.35649e-07
4.02543e-07
3.71895e-07
3.45421e-07
3.21312e-07
2.97851e-07
2.74836e-07
2.52281e-07
2.29962e-07
2.08448e-07
1.90458e-07
1.75692e-07
1.61772e-07
1.49399e-07
1.35294e-07
1.1947e-07
1.01846e-07
8.36645e-08
5.78838e-08
3.82469e-08
2.0903e-08
1.22143e-06
9.34492e-07
6.80622e-07
6.26428e-07
6.04007e-07
5.71567e-07
5.42046e-07
5.11193e-07
4.7428e-07
4.37916e-07
4.04095e-07
3.72222e-07
3.44895e-07
3.20854e-07
2.97139e-07
2.73684e-07
2.50987e-07
2.27819e-07
2.06239e-07
1.88954e-07
1.74442e-07
1.61814e-07
1.51261e-07
1.37798e-07
1.19503e-07
1.02911e-07
8.58511e-08
5.75705e-08
3.85202e-08
2.2986e-08
1.02629e-06
8.56081e-07
6.42052e-07
5.93721e-07
5.81004e-07
5.59638e-07
5.39487e-07
5.09983e-07
4.74157e-07
4.37727e-07
4.04432e-07
3.72873e-07
3.44792e-07
3.19594e-07
2.96056e-07
2.72545e-07
2.49032e-07
2.2627e-07
2.05412e-07
1.88137e-07
1.73284e-07
1.60601e-07
1.5115e-07
1.40666e-07
1.23244e-07
1.03553e-07
8.44378e-08
5.71196e-08
3.9601e-08
2.36038e-08
9.30444e-07
7.59698e-07
5.7922e-07
5.54335e-07
5.6181e-07
5.51242e-07
5.3353e-07
5.06688e-07
4.72805e-07
4.37003e-07
4.03142e-07
3.72854e-07
3.45288e-07
3.18957e-07
2.94522e-07
2.70957e-07
2.47303e-07
2.25559e-07
2.05548e-07
1.86484e-07
1.71964e-07
1.60223e-07
1.51072e-07
1.41619e-07
1.26689e-07
1.08905e-07
8.20448e-08
5.62196e-08
4.09233e-08
2.1137e-08
7.81749e-07
6.57224e-07
5.21143e-07
5.2497e-07
5.45966e-07
5.39234e-07
5.26634e-07
5.03419e-07
4.71022e-07
4.35394e-07
4.02561e-07
3.72991e-07
3.44888e-07
3.18346e-07
2.93656e-07
2.6977e-07
2.46417e-07
2.24449e-07
2.0476e-07
1.86642e-07
1.70696e-07
1.60018e-07
1.51915e-07
1.42444e-07
1.27517e-07
1.0941e-07
8.48597e-08
5.50724e-08
4.20595e-08
2.15615e-08
7.0046e-07
5.96305e-07
4.83265e-07
5.02087e-07
5.29795e-07
5.28159e-07
5.20362e-07
5.00476e-07
4.68952e-07
4.34188e-07
4.02548e-07
3.7292e-07
3.44534e-07
3.18197e-07
2.9325e-07
2.69175e-07
2.45942e-07
2.2399e-07
2.0401e-07
1.86534e-07
1.70953e-07
1.59595e-07
1.52608e-07
1.43216e-07
1.27629e-07
1.09888e-07
8.78244e-08
5.47666e-08
4.1759e-08
2.14567e-08
7.14891e-07
5.82522e-07
4.58336e-07
4.84072e-07
5.17397e-07
5.2065e-07
5.16337e-07
4.98211e-07
4.67775e-07
4.33653e-07
4.02087e-07
3.72998e-07
3.44998e-07
3.18559e-07
2.93454e-07
2.69283e-07
2.4606e-07
2.24153e-07
2.04236e-07
1.86057e-07
1.70847e-07
1.59868e-07
1.53103e-07
1.43677e-07
1.27767e-07
1.10488e-07
8.92515e-08
5.54675e-08
4.17644e-08
2.12386e-08
7.17504e-07
5.75911e-07
4.47067e-07
4.75333e-07
5.11445e-07
5.17084e-07
5.14445e-07
4.97275e-07
4.67485e-07
4.3381e-07
4.02344e-07
3.73487e-07
3.45831e-07
3.19468e-07
2.94384e-07
2.70172e-07
2.46851e-07
2.24822e-07
2.04724e-07
1.86185e-07
1.71089e-07
1.60182e-07
1.53367e-07
1.43879e-07
1.27932e-07
1.10857e-07
8.98619e-08
5.60195e-08
4.19576e-08
2.11817e-08
6.84025e-07
5.64575e-07
4.48492e-07
4.76635e-07
5.12676e-07
5.1787e-07
5.14909e-07
4.97938e-07
4.68227e-07
4.34589e-07
4.03632e-07
3.74792e-07
3.4691e-07
3.20888e-07
2.9604e-07
2.71838e-07
2.48283e-07
2.25865e-07
2.05478e-07
1.87318e-07
1.71637e-07
1.60383e-07
1.53453e-07
1.43884e-07
1.27981e-07
1.10739e-07
8.98733e-08
5.6416e-08
4.22705e-08
2.12625e-08
6.75391e-07
5.72592e-07
4.61847e-07
4.85554e-07
5.19652e-07
5.22958e-07
5.18165e-07
5.00089e-07
4.70233e-07
4.36393e-07
4.05364e-07
3.76268e-07
3.48766e-07
3.22921e-07
2.98376e-07
2.74222e-07
2.50352e-07
2.27557e-07
2.06711e-07
1.88478e-07
1.72352e-07
1.60994e-07
1.53402e-07
1.43607e-07
1.27917e-07
1.10099e-07
8.88364e-08
5.72501e-08
4.28488e-08
2.13022e-08
7.68471e-07
6.25491e-07
4.87644e-07
4.98377e-07
5.29962e-07
5.32241e-07
5.23993e-07
5.03289e-07
4.7317e-07
4.39531e-07
4.07005e-07
3.78365e-07
3.51253e-07
3.2551e-07
3.01212e-07
2.7719e-07
2.52894e-07
2.29773e-07
2.08944e-07
1.89157e-07
1.73159e-07
1.62127e-07
1.53307e-07
1.43061e-07
1.27542e-07
1.09166e-07
8.61294e-08
5.9052e-08
4.39079e-08
2.12007e-08
8.16251e-07
6.72569e-07
5.3028e-07
5.26141e-07
5.4186e-07
5.41119e-07
5.3113e-07
5.07648e-07
4.76485e-07
4.43016e-07
4.10659e-07
3.80328e-07
3.53733e-07
3.28289e-07
3.04562e-07
2.80677e-07
2.55788e-07
2.32453e-07
2.10462e-07
1.90539e-07
1.75374e-07
1.62836e-07
1.53606e-07
1.42775e-07
1.26305e-07
1.06119e-07
8.52626e-08
5.99874e-08
4.30862e-08
2.21445e-08
7.4716e-07
6.88141e-07
5.78744e-07
5.61584e-07
5.63825e-07
5.50253e-07
5.35676e-07
5.1292e-07
4.80533e-07
4.46604e-07
4.14416e-07
3.83084e-07
3.55399e-07
3.3174e-07
3.08205e-07
2.83968e-07
2.59789e-07
2.34654e-07
2.11625e-07
1.93102e-07
1.77501e-07
1.64139e-07
1.54233e-07
1.4137e-07
1.22573e-07
1.05322e-07
8.70202e-08
6.00002e-08
3.99892e-08
2.25e-08
7.77083e-07
7.15577e-07
6.18423e-07
5.94025e-07
5.85471e-07
5.64045e-07
5.41695e-07
5.16007e-07
4.83914e-07
4.50118e-07