/*--------------------------------*- C++ -*----------------------------------*\
| =========                 |                                                 |
| \\      /  F ield         | OpenFOAM: The Open Source CFD Toolbox           |
|  \\    /   O peration     | Version:  2212                                  |
|   \\  /    A nd           | Website:  www.openfoam.com                      |
|    \\/     M anipulation  |                                                 |
\*---------------------------------------------------------------------------*/
FoamFile
{
    version     2.0;
    format      ascii;
    arch        "LSB;label=32;scalar=64";
    class       volScalarField;
    location    "0";
    object      p;
}
// * * * * * * * * * * * * * * * * * * * * * * * * * * * * * * * * * * * * * //

dimensions      [0 2 -2 0 0 0 0];

internalField   nonuniform List<scalar> 
179928
(
-0.0784257
-0.0274905
-0.00286007
0.00127012
0.00339801
0.00434536
0.00480012
0.00492754
0.00464461
0.00424895
0.00483541
0.00451373
0.00399597
0.00382713
0.00353282
0.00331095
0.00307252
0.00287835
0.00267292
0.00278073
0.00221659
0.00150226
0.00186509
0.00169436
0.00156644
0.00148833
0.00155873
0.00171411
0.00460997
0.00367792
-0.0324043
-0.0168044
-0.0037186
0.00129184
0.00350166
0.00444303
0.00481806
0.00488045
0.00475846
0.00459554
0.00455916
0.00440966
0.00408327
0.00381432
0.0035504
0.00330757
0.00308366
0.00288705
0.00271653
0.00251506
0.00217929
0.0018744
0.00176338
0.00164246
0.00152172
0.00141713
0.00131141
0.00118952
0.0014423
0.00115979
-0.0268085
-0.00804289
0.00139531
0.00302624
0.00415018
0.00474544
0.00498415
0.00498371
0.0048507
0.00470923
0.00456581
0.00435623
0.00408117
0.0038121
0.00355657
0.00331307
0.00308445
0.00286864
0.00267024
0.0024557
0.00219777
0.00193568
0.00175731
0.00162279
0.00146922
0.00130915
0.00113836
0.00101599
0.00111717
0.000115682
-0.0184529
-0.000790789
0.00539228
0.00497888
0.00509323
0.00523324
0.00526547
0.00515134
0.00497703
0.00480841
0.00458673
0.0043458
0.00407767
0.00381202
0.0035566
0.00331045
0.00307525
0.00284857
0.002634
0.00241687
0.00219129
0.00197297
0.00175233
0.0016174
0.00144699
0.00127813
0.00114918
0.00120273
0.00142948
-8.14539e-05
-0.0119363
0.00294043
0.00722571
0.00640551
0.00600906
0.00577715
0.00559346
0.00539009
0.00513082
0.00487236
0.00462234
0.00435764
0.00408442
0.00381429
0.00355397
0.00330283
0.00306234
0.00283034
0.00260775
0.00238812
0.00216723
0.00195954
0.00179411
0.00161948
0.00144571
0.00128496
0.00119726
0.00111205
0.0012417
0.000341276
-0.0157414
0.00164854
0.00794791
0.0070521
0.00658104
0.00629381
0.00591497
0.00560772
0.0052675
0.00494428
0.00466669
0.00438176
0.0040985
0.00381877
0.00355075
0.00329345
0.00304841
0.00281368
0.00258748
0.00236555
0.00214516
0.00193974
0.00179602
0.00162086
0.0014719
0.00131146
0.000976124
0.000999578
0.001289
0.000318038
-0.01993
-0.00113672
0.00726981
0.00739827
0.00701732
0.00646774
0.00612745
0.0057875
0.00539792
0.0050386
0.00470349
0.00440318
0.0041105
0.00382234
0.00354636
0.00328315
0.00303312
0.00279506
0.00256499
0.00233645
0.00212846
0.00194574
0.00179198
0.00163175
0.00137589
0.00123118
0.0011881
0.00105625
0.00115121
0.000216204
-0.022878
-0.00354467
0.00629019
0.00714312
0.00708261
0.00672018
0.00626922
0.00586259
0.00549061
0.00511062
0.00475397
0.00442459
0.00411527
0.00382036
0.0035402
0.00327212
0.00301583
0.00277166
0.00254128
0.00232378
0.0021263
0.00194329
0.00178423
0.00159173
0.0014572
0.00130611
0.00116946
0.00105442
0.00112043
0.000222536
-0.0248684
-0.00506283
0.00550899
0.00678452
0.00699585
0.00671645
0.00633912
0.00594374
0.00553739
0.00514991
0.00478383
0.00444051
0.00411927
0.00381772
0.0035338
0.00326153
0.00300025
0.00275166
0.00252257
0.0023103
0.00211623
0.00193679
0.00178986
0.00164381
0.00146774
0.00136431
0.00122018
0.00106736
0.00116715
0.000261717
-0.0262528
-0.00568291
0.00515568
0.00647518
0.00676135
0.00662374
0.00631518
0.00595084
0.00555785
0.00516763
0.00479803
0.0044509
0.00412119
0.00381456
0.00352705
0.0032513
0.00298621
0.0027353
0.00250663
0.002297
0.00210407
0.00193496
0.00179102
0.00164675
0.0015029
0.0013755
0.00126757
0.00124492
0.00132205
6.26836e-05
-0.0263767
-0.00601856
0.00471046
0.00604274
0.0064817
0.00646837
0.00624558
0.00592333
0.00555176
0.00517066
0.00480423
0.00445318
0.00412178
0.00381167
0.00352033
0.00324169
0.00297441
0.00272307
0.00249299
0.0022839
0.00209508
0.0019304
0.00178992
0.00165455
0.0015152
0.00137228
0.00124166
0.00119633
0.00134415
-0.000122391
-0.025808
-0.00687064
0.00390087
0.0056039
0.00621775
0.00630936
0.00615508
0.00587701
0.00553169
0.00516481
0.00479998
0.00445144
0.00412143
0.00380957
0.00351487
0.00323382
0.00296565
0.00271428
0.00248267
0.00227173
0.00208554
0.00192645
0.00178851
0.00166141
0.00152374
0.00138331
0.00126639
0.00121581
0.000908383
-0.000176734
-0.0263371
-0.00800171
0.0031108
0.0051937
0.00597666
0.00616039
0.00606355
0.0058262
0.00550776
0.0051518
0.00479281
0.00444826
0.00412048
0.0038087
0.00351226
0.00322952
0.00296059
0.00270832
0.0024751
0.00226302
0.00207776
0.00192238
0.00178928
0.0016641
0.00152979
0.00138743
0.00126307
0.00114811
0.000784422
0.000156133
-0.0268989
-0.00878559
0.00249893
0.00484458
0.00576862
0.0060315
0.00598585
0.00578182
0.00548353
0.00513894
0.00478652
0.00444624
0.00412112
0.00381044
0.0035135
0.00322973
0.00295985
0.00270618
0.00247123
0.00225812
0.00207315
0.00191988
0.00178945
0.001667
0.00153394
0.00138926
0.00126534
0.00115537
0.000814992
0.00013135
-0.0274994
-0.00925768
0.00215455
0.00460894
0.00561856
0.00593788
0.00592981
0.00574988
0.00546693
0.00513077
0.00478388
0.00444763
0.00412543
0.00381624
0.00351948
0.00323509
0.00296416
0.0027089
0.00247199
0.00225722
0.00207182
0.00191966
0.00179121
0.00166911
0.00153669
0.00139364
0.00127418
0.00116995
0.00080353
0.000118076
-0.0278264
-0.00947516
0.00201984
0.00450394
0.00554605
0.0058916
0.00590297
0.00573696
0.0054617
0.00513098
0.00478775
0.00445432
0.00413445
0.0038269
0.0035308
0.00324606
0.00297385
0.00271666
0.00247757
0.0022609
0.00207438
0.00192178
0.00179359
0.00167199
0.00153761
0.00139764
0.00128055
0.00117639
0.000807303
0.000120077
-0.0277841
-0.00938656
0.00206741
0.004527
0.00555555
0.00589857
0.00591018
0.00574392
0.00547043
0.00514152
0.00479973
0.00446739
0.00414873
0.00384269
0.00354766
0.00326272
0.00298892
0.00272939
0.00248801
0.00226946
0.00208113
0.00192659
0.00179585
0.00167276
0.00154046
0.00139889
0.00128148
0.00117627
0.000812015
0.000124473
-0.0273296
-0.00901735
0.00233904
0.00467568
0.00563954
0.00595337
0.00594871
0.00577289
0.00549346
0.00516223
0.00481943
0.00448673
0.00416848
0.00386362
0.00356979
0.00328472
0.00300912
0.00274707
0.00250322
0.0022823
0.00209153
0.00193396
0.00179976
0.00167341
0.00153898
0.00139763
0.00127955
0.00117466
0.000814961
0.000131748
-0.0267807
-0.00821203
0.00284619
0.00492064
0.00578091
0.00604702
0.0060164
0.00581929
0.00552858
0.00519165
0.00484605
0.00451171
0.004193
0.00388887
0.0035964
0.00331138
0.0030338
0.00276912
0.00252282
0.00229921
0.00210537
0.00194369
0.00180409
0.0016745
0.00153453
0.00139193
0.001269
0.00116426
0.000882015
0.000146123
-0.0265739
-0.00726712
0.0034958
0.00523945
0.00597023
0.00617232
0.00610389
0.00588206
0.00557045
0.0052263
0.00487858
0.00454111
0.00422057
0.00391707
0.00362652
0.00334184
0.00306216
0.00279441
0.00254599
0.0023205
0.00212225
0.00195337
0.00181064
0.00167513
0.00153163
0.001384
0.00125332
0.00117429
0.000999288
0.000108338
-0.027098
-0.00664626
0.00414534
0.00560751
0.00619986
0.00632115
0.00620059
0.00594801
0.00561753
0.00526192
0.00491309
0.00457368
0.00425016
0.00394738
0.00365882
0.00337456
0.0030935
0.00282261
0.00257272
0.0023457
0.00214019
0.00196403
0.00181656
0.00167512
0.00153274
0.00138626
0.00125374
0.00118063
0.0010906
-1.36492e-05
-0.0245354
-0.00560106
0.00436038
0.00592399
0.00645664
0.00647849
0.00628624
0.00599921
0.00565817
0.00530271
0.00494718
0.00460586
0.00428184
0.00397948
0.00369138
0.00340744
0.00312667
0.00285451
0.0026029
0.00237226
0.00216433
0.00197807
0.00181611
0.0016656
0.00152645
0.0014026
0.00127653
0.0011312
0.00103754
2.34324e-05
-0.0233042
-0.00468903
0.00481421
0.00616634
0.00665719
0.0066133
0.00636621
0.00603149
0.00569248
0.00533009
0.00497301
0.0046321
0.00431308
0.00401189
0.00372339
0.00343987
0.00316048
0.00288915
0.00263298
0.00239695
0.00218165
0.00199836
0.00181533
0.00165313
0.00150978
0.00139168
0.00119313
0.00102343
0.00107512
0.000179926
-0.0238648
-0.0044767
0.00535355
0.00654625
0.00683393
0.00668273
0.00640315
0.00605646
0.00569129
0.00532866
0.00498324
0.00465376
0.00434307
0.0040434
0.00375447
0.00347156
0.00319438
0.00292554
0.00266601
0.0024178
0.00219155
0.00199057
0.00182289
0.00166299
0.00152081
0.0013183
0.00119702
0.00104502
0.00111844
0.000204495
-0.0245954
-0.00444176
0.00581203
0.00680484
0.00692944
0.00670868
0.00637803
0.00604001
0.00567997
0.00531529
0.00498614
0.00467585
0.00437029
0.00407167
0.00378394
0.00350161
0.00322716
0.00296086
0.00270289
0.00244791
0.00220372
0.00199453
0.00182979
0.00166156
0.00148344
0.0013655
0.00119147
0.00104324
0.00114632
0.000204487
-0.0249637
-0.00429345
0.00611684
0.00688272
0.00686978
0.00665665
0.0063006
0.0059707
0.00563213
0.00531671
0.00500361
0.00469209
0.00438899
0.00409424
0.00380963
0.00352936
0.00325613
0.00299009
0.00273445
0.00248701
0.00225235
0.00202188
0.00183026
0.00164173
0.00149644
0.00136573
0.00117869
0.00106859
0.00116918
0.000190683
-0.0244626
-0.00383976
0.00606391
0.00661243
0.00660806
0.0064927
0.00616932
0.00586563
0.0055831
0.00532005
0.00501792
0.00471265
0.00440828
0.00411491
0.00383212
0.0035537
0.00328251
0.00301932
0.00277043
0.00253151
0.00230011
0.00206898
0.00182738
0.00164372
0.00154543
0.00137967
0.001076
0.00108964
0.00122428
0.000207444
-0.0240513
-0.00386614
0.00519149
0.00588191
0.00621829
0.0061388
0.006028
0.00581358
0.00554094
0.00530308
0.00502755
0.00474022
0.00443146
0.00413362
0.00384981
0.00357161
0.00330437
0.00304876
0.00281296
0.00257748
0.0023356
0.00209205
0.00185414
0.00167157
0.00144268
0.0013721
0.00134338
0.0013578
0.0010677
0.000350063
-0.0248331
-0.00695513
0.00259676
0.00483896
0.00574561
0.00597904
0.00592303
0.00575657
0.00550027
0.00526118
0.00504547
0.00478102
0.00445483
0.00414702
0.00386061
0.00357815
0.00331736
0.0030743
0.00285941
0.00263291
0.00235402
0.00208206
0.00186955
0.00163229
0.00138703
0.00160502
0.00164047
0.00152639
0.00167965
0.000863691
-0.0533777
-0.0218254
0.000548522
0.00465748
0.00560221
0.00593844
0.005921
0.00575305
0.00542491
0.00515643
0.00510564
0.00487748
0.00445458
0.00415109
0.00386446
0.00356931
0.00331665
0.00308468
0.00289573
0.00277492
0.00231553
0.00201454
0.00188848
0.0017138
0.00114997
0.0018928
0.00214665
0.00240884
0.00342598
0.00313269
-0.0376371
-0.0177884
-0.00403827
0.000974353
0.00334504
0.00436829
0.00478187
0.00485109
0.00470687
0.00462499
0.00461359
0.00437152
0.00407925
0.0038045
0.00354289
0.00330792
0.00308232
0.00288308
0.00268953
0.00252333
0.00223571
0.00185977
0.00173809
0.00163175
0.00151599
0.00139595
0.00131297
0.00130018
0.00171263
0.000807817
-0.00613482
-0.00895786
-0.00401669
0.00118289
0.00348769
0.00445217
0.0048189
0.00487617
0.00478941
0.00469481
0.00455246
0.00433755
0.00408379
0.00381331
0.003551
0.00330997
0.00308747
0.0028852
0.00267574
0.00245119
0.00221775
0.00194323
0.00174584
0.00160811
0.00147935
0.00133405
0.00114145
0.0008034
0.000417307
0.00104996
0.00118129
0.000104741
0.000915234
0.00288337
0.00413684
0.00475307
0.00497964
0.00498924
0.00491041
0.00474545
0.00454091
0.00433313
0.00407108
0.00381203
0.00355711
0.00331373
0.00308533
0.00286198
0.00265011
0.00242165
0.00218352
0.00198406
0.00177132
0.00158686
0.00142791
0.00124327
0.000992406
0.000641639
0.000303985
0.000576817
0.0187426
0.00896247
0.00446677
0.00473491
0.00506707
0.00524132
0.00526106
0.00517392
0.00503473
0.00480169
0.00457422
0.00433423
0.00406865
0.00381146
0.00355732
0.00331096
0.00307531
0.00284207
0.00261835
0.00240141
0.00216613
0.00198302
0.00178679
0.00158534
0.00140665
0.00120964
0.000970941
0.000701488
0.000405208
0.000507243
0.0205599
0.012298
0.00684803
0.00622662
0.00599963
0.00579477
0.00561618
0.0053977
0.00514887
0.00488088
0.00461955
0.00434792
0.00407851
0.00381311
0.0035539
0.00330296
0.00306118
0.00282481
0.00259548
0.00237479
0.00216175
0.00196017
0.00178364
0.00160347
0.00141943
0.00121264
0.00101387
0.000645392
0.000446011
0.000550072
0.0152113
0.0102967
0.00765919
0.00716051
0.00654242
0.0062937
0.00595658
0.00560602
0.00527545
0.00496771
0.00466135
0.00437272
0.00409081
0.00381581
0.00354983
0.00329334
0.00304593
0.00280604
0.00257431
0.00235092
0.00214464
0.00195601
0.00176876
0.00161193
0.00146201
0.00115451
0.00090413
0.000805104
0.000491947
0.000434958
0.0109387
0.00744815
0.00698544
0.00740544
0.0070436
0.00650503
0.00615672
0.00580458
0.0054079
0.00503213
0.00470653
0.00439933
0.00410133
0.00381706
0.00354499
0.00328309
0.00302964
0.0027848
0.00255237
0.00233218
0.00212144
0.00194113
0.0017867
0.00162526
0.00135067
0.00118041
0.0010466
0.000825166
0.000444265
0.00038794
0.0071872
0.00506401
0.00615878
0.00718667
0.00710578
0.00674405
0.00629568
0.00587826
0.00550231
0.00511084
0.00474742
0.00441706
0.00410944
0.00381742
0.00353879
0.0032714
0.00301287
0.00276501
0.00252829
0.00230922
0.00211482
0.00193953
0.00177819
0.00157536
0.00143333
0.00123202
0.00103966
0.000821808
0.00045607
0.000391854
0.00552285
0.00402319
0.00551493
0.00681401
0.00697257
0.00671248
0.00637099
0.00596451
0.00554626
0.00515513
0.00478091
0.00442904
0.00411143
0.00381564
0.00353216
0.0032597
0.00299724
0.00274465
0.00250415
0.00229248
0.00210679
0.00192906
0.0017814
0.00163596
0.00144135
0.00124139
0.00105558
0.000822158
0.000486242
0.000431001
0.00715804
0.00393442
0.00479719
0.00635258
0.00675846
0.00664884
0.00634931
0.00597645
0.00557254
0.00517372
0.00479436
0.00443811
0.00411172
0.00381028
0.00352518
0.00324911
0.00298219
0.00272537
0.00248881
0.00227789
0.00209227
0.0019276
0.00178691
0.00164419
0.00148454
0.00129872
0.00106401
0.000782913
0.00046668
0.000486283
0.00579154
0.00303309
0.00417754
0.00597703
0.00652849
0.00650573
0.00627928
0.00595247
0.00556925
0.00517448
0.00479707
0.00444458
0.00411238
0.00380387
0.00351617
0.00323784
0.00296708
0.00271084
0.00247936
0.00226743
0.00207922
0.00192079
0.00178776
0.00165254
0.00149657
0.00132442
0.00110492
0.000751624
0.000359571
0.000497776
0.00277087
0.00142837
0.00358838
0.00561162
0.00628242
0.00635599
0.00619354
0.00590924
0.00554937
0.00516354
0.00479444
0.00444332
0.00411196
0.0038006
0.00350779
0.00322703
0.00295588
0.0027018
0.0024689
0.00225808
0.00206961
0.00191374
0.00178754
0.00165958
0.001508
0.00133704
0.00112202
0.000793633
0.000315553
0.000389094
-0.000762715
-0.000272511
0.00303724
0.00525216
0.00605577
0.00621193
0.00610573
0.00585918
0.00552202
0.0051537
0.0047873
0.00443922
0.00411034
0.0037985
0.00350313
0.0032203
0.00294922
0.00269474
0.00246048
0.00224804
0.00206469
0.00191295
0.00178711
0.00166313
0.00151336
0.00133789
0.00109397
0.000745406
0.000472734
0.000373059
-0.00212388
-0.0012698
0.0025148
0.0049357
0.00585698
0.00608431
0.00602848
0.00581361
0.00550044
0.00514273
0.0047802
0.00443705
0.0041102
0.00379931
0.00350285
0.00321873
0.00294722
0.00269168
0.00245589
0.00224254
0.00205941
0.00191557
0.00178886
0.00166566
0.00151574
0.00134039
0.00109759
0.000763278
0.000506656
0.000366555
-0.00238859
-0.00165059
0.00216899
0.0047052
0.00570906
0.00599148
0.00597389
0.00578357
0.00548467
0.0051348
0.004777
0.00443828
0.0041146
0.00380473
0.00350794
0.00322307
0.00295082
0.00269415
0.00245664
0.00224094
0.00205764
0.00191624
0.00179203
0.00166904
0.00151787
0.00134518
0.00110754
0.000777006
0.00051573
0.000361271
-0.00253609
-0.00180032
0.00202669
0.00459785
0.0056365
0.00594638
0.00594827
0.00577079
0.00548005
0.00513528
0.00478075
0.00444487
0.00412375
0.00381541
0.00351919
0.00323392
0.00296043
0.00270191
0.00246219
0.00224431
0.00206019
0.00191876
0.00179469
0.00167114
0.00151999
0.00134901
0.00111399
0.000784147
0.000520521
0.000360522
-0.00248322
-0.00177915
0.00205979
0.00461834
0.0056468
0.00595402
0.00595527
0.00577809
0.00548874
0.00514589
0.00479343
0.00445832
0.00413792
0.00383151
0.00353675
0.00325135
0.00297597
0.00271464
0.00247252
0.00225353
0.00206724
0.00192319
0.00179648
0.0016721
0.00152119
0.00135011
0.00111533
0.000785772
0.000522617
0.000362499
-0.00223947
-0.00141589
0.00230717
0.00475078
0.00572763
0.00601056
0.00599486
0.00580674
0.00551065
0.0051665
0.00481373
0.00447777
0.00415812
0.00385326
0.00356027
0.00327491
0.00299723
0.00273288
0.00248787
0.00226667
0.00207838
0.00192909
0.00179876
0.00167196
0.0015204
0.00134798
0.00111402
0.000781353
0.00052167
0.000369157
-1.41844e-05
-0.000318712
0.0026356
0.00495385
0.00586081
0.00610567
0.0060621
0.00585673
0.00554532
0.00519257
0.00484169
0.00450339
0.00418366
0.00387975
0.0035887
0.00330366
0.00302333
0.00275599
0.0025083
0.00228465
0.0020919
0.00193245
0.00180456
0.00167305
0.00151626
0.00134252
0.00111746
0.000772081
0.000503025
0.000394933
0.00317855
0.00106987
0.00299419
0.00522354
0.00604212
0.00622784
0.00614738
0.00591631
0.00559121
0.00522969
0.00487273
0.00453358
0.00421163
0.00390903
0.00362122
0.00333681
0.00305345
0.00278191
0.00253232
0.00230546
0.00210573
0.00194389
0.00181104
0.00167329
0.00151212
0.00133559
0.00111515
0.000760682
0.000475268
0.000433925
0.00415238
0.0020342
0.00359175
0.00552739
0.00624669
0.00637082
0.0062393
0.0059806
0.00563806
0.00527044
0.00490929
0.0045634
0.00424086
0.00394134
0.00365632
0.00337184
0.00308778
0.0028109
0.00255704
0.0023269
0.00212665
0.00195707
0.0018162
0.00167215
0.00151141
0.001332
0.00108607
0.000759594
0.000459959
0.000448674
0.00567937
0.00305496
0.0041476
0.00590185
0.0064572
0.006501
0.00632501
0.00603162
0.0056772
0.00531132
0.00494674
0.00459236
0.00427343
0.0039775
0.00368951
0.00340505
0.00312311
0.00284728
0.0025824
0.00235263
0.00215409
0.00197098
0.00181482
0.0016609
0.00150179
0.00129642
0.00107348
0.000806682
0.00045013
0.000406681
0.00690341
0.00393496
0.00470724
0.0062606
0.00668515
0.00662473
0.00639703
0.00605668
0.00570527
0.00533839
0.00497122
0.00462385
0.0043076
0.00400926
0.00372153
0.0034381
0.00315672
0.00288229
0.00261814
0.00238046
0.00217341
0.00199012
0.00180404
0.00164374
0.0014801
0.00128675
0.00107873
0.000810162
0.000437781
0.000378421
0.00716217
0.00446631
0.00526646
0.00660304
0.00686522
0.0067295
0.00643668
0.00607424
0.00570496
0.0053332
0.0049799
0.00465132
0.00433677
0.0040394
0.00375304
0.00347098
0.00319061
0.00291676
0.00265594
0.0024095
0.0021812
0.0019882
0.00181114
0.00164757
0.00149226
0.00129846
0.00106395
0.000805261
0.000424736
0.000371223
0.00714476
0.00497424
0.00580027
0.00686229
0.00697278
0.00673719
0.00641502
0.00603893
0.0056894
0.00533294
0.00499301
0.00467059
0.00436134
0.00406745
0.00378242
0.00350133
0.00322335
0.00295066
0.00268902
0.00244044
0.00220863
0.00200162
0.00181291
0.00164496
0.00148456
0.00130208
0.00108008
0.000795058
0.000418078
0.000371086
0.00729342
0.005522
0.00619856
0.00693281
0.00692283
0.00667172
0.00630971
0.00597531
0.00565241
0.00533971
0.00500511
0.00468579
0.00438377
0.00409266
0.00380897
0.00352916
0.00325388
0.00298383
0.00272276
0.00247373
0.00225299
0.0020338
0.00181879
0.00163207
0.00146294
0.00131168
0.00108621
0.000794517
0.000424019
0.000379483
0.0091837
0.00642912
0.00616453
0.00665075
0.00665148
0.00647202
0.00615364
0.00589773
0.0056336
0.00532058
0.00501702
0.00470433
0.00440133
0.00411439
0.0038326
0.00355407
0.00328172
0.00301304
0.0027561
0.00251923
0.00228569
0.0020715
0.00185893
0.00163164
0.00148014
0.0013324
0.00100591
0.000791885
0.00049877
0.000404397
0.011313
0.0069561
0.00530541
0.00589976
0.00618678
0.00618692
0.00601209
0.0058233
0.00560219
0.00531035
0.00500993
0.00472816
0.00442297
0.00413473
0.00385108
0.00357267
0.00330531
0.00304273
0.00279619
0.00255371
0.00230849
0.00211069
0.00187688
0.00162977
0.00143588
0.00141665
0.00119983
0.000918797
0.000395333
0.000467388
0.0140514
0.0053341
0.00275903
0.00479905
0.00576109
0.00598477
0.00590848
0.00575765
0.00554547
0.00530388
0.00502089
0.00474743
0.0044505
0.00415028
0.00386121
0.00358115
0.00332027
0.00307123
0.00283638
0.00258068
0.00234633
0.00211525
0.00186899
0.00162101
0.00145663
0.00151264
0.00142119
0.00110841
0.000686162
0.000784142
0.0024008
-0.00584883
6.73933e-05
0.00440151
0.00564056
0.00593153
0.00589088
0.00573153
0.00548932
0.0052331
0.00507643
0.00479282
0.00447322
0.00415439
0.00385963
0.00358042
0.00332029
0.00309082
0.00286914
0.00265932
0.00235184
0.00206057
0.00187694
0.00164236
0.00142749
0.00166074
0.00183274
0.00175721
0.0011789
0.00198117
-0.0333129
-0.0133048
-0.00131499
0.00192852
0.00368244
0.00451308
0.00483536
0.00488792
0.00481189
0.00468852
0.00453811
0.00433879
0.00407183
0.00380485
0.00354291
0.00330194
0.00307973
0.00287125
0.00266852
0.0024515
0.00219332
0.00195207
0.00174385
0.00158291
0.00143563
0.00128186
0.0011047
0.00100775
0.00116506
0.000211722
-0.0028796
-0.00423151
-0.00115058
0.00210578
0.00380423
0.0045888
0.00488192
0.00492377
0.00485445
0.00473259
0.00452903
0.00430161
0.00408186
0.00381074
0.00354587
0.00330413
0.00307997
0.00287959
0.00264756
0.00240279
0.00220125
0.0019749
0.00174914
0.00156713
0.00141498
0.0012271
0.000977716
0.000639459
0.000271581
0.000588161
0.00919221
0.00619676
0.00334985
0.00361834
0.00441327
0.00488053
0.00504466
0.00504067
0.00493722
0.00476991
0.00454719
0.00430478
0.00407013
0.00380857
0.00355029
0.0033069
0.00307575
0.00285888
0.00262214
0.00238695
0.00218523
0.00197191
0.00176182
0.0015558
0.00137481
0.00116044
0.000863867
0.000507275
0.00035094
0.000367001
0.0238816
0.0145635
0.00696128
0.00547464
0.00535972
0.00537716
0.00532814
0.00521968
0.0050554
0.00483283
0.00457942
0.00430025
0.00405599
0.0038162
0.00355556
0.00330704
0.00307431
0.0028377
0.00257872
0.00236397
0.00216956
0.00197083
0.00176662
0.00155473
0.00136023
0.00114678
0.000857929
0.000561232
0.000392333
0.000256047
0.0227955
0.0166139
0.00937228
0.00701827
0.0062994
0.00594369
0.00568954
0.00543784
0.00518567
0.00490558
0.0046019
0.0043239
0.00406945
0.00381437
0.00355236
0.00330024
0.00305857
0.00281763
0.00256912
0.00233243
0.00214132
0.00196006
0.00176366
0.00157193
0.00138047
0.00115334
0.000867767
0.000561458
0.000400332
0.000281975
0.0181493
0.01469
0.0101136
0.00790274
0.00691705
0.00648273
0.00605674
0.00565957
0.00531058
0.00496874
0.00464549
0.00435787
0.00408052
0.00381314
0.00354794
0.00329096
0.00304116
0.00279494
0.00255125
0.00231959
0.00211175
0.0019364
0.00175837
0.00159914
0.001454
0.00115085
0.000750829
0.000603017
0.000481592
0.000258345
0.0141314
0.0121143
0.00962209
0.00833188
0.00743596
0.00669047
0.00626138
0.00585916
0.00540993
0.00503217
0.00470296
0.00438733
0.00408907
0.00380767
0.0035426
0.00328105
0.00302269
0.0027665
0.00252796
0.00230761
0.0021045
0.00190605
0.00175644
0.00162247
0.00134043
0.00114893
0.000956484
0.000687899
0.000413379
0.000226378
0.0104795
0.0102193
0.00911953
0.00819019
0.00750734
0.00692849
0.00639687
0.00592022
0.00552354
0.00510361
0.00473599
0.00440566
0.00409297
0.00380499
0.00353529
0.0032685
0.00300411
0.00274322
0.00250045
0.00228482
0.00208914
0.00191976
0.00175627
0.00155714
0.00141976
0.00120049
0.000960735
0.000680468
0.000432581
0.000233158
0.0116734
0.0104407
0.00863965
0.00783549
0.00737553
0.00689489
0.00645394
0.00600977
0.00558178
0.0051592
0.00476714
0.00440419
0.00409067
0.00380515
0.00352732
0.00325476
0.00298765
0.00272334
0.00246856
0.00225551
0.00208065
0.0019158
0.00176927
0.00160223
0.00141483
0.00120612
0.000990802
0.000685493
0.000452941
0.000247545
0.0144649
0.0110668
0.00806031
0.00741851
0.00715299
0.00676881
0.00641921
0.00605384
0.00561669
0.00518605
0.00478552
0.00440806
0.00408444
0.00379974
0.00351889
0.00324112
0.00297233
0.00269797
0.00244239
0.0022377
0.00206584
0.0019163
0.00179132
0.00163188
0.00141522
0.00121873
0.0010167
0.000681783
0.000456178
0.000272213
0.0121539
0.0101382
0.00760354
0.00703118
0.00688058
0.00662754
0.00638891
0.0060395
0.00561523
0.00518381
0.00478951
0.00441577
0.00408322
0.00378481
0.00350607
0.00322763
0.00294917
0.00267962
0.0024326
0.00222802
0.00205212
0.00190192
0.00179
0.00166585
0.00145953
0.00122633
0.00099996
0.000676443
0.000468978
0.00027953
0.0110188
0.00899677
0.00685945
0.00656475
0.00665327
0.00652812
0.00631836
0.00600049
0.00559922
0.00517524
0.00477424
0.00441555
0.00408909
0.00377727
0.00348789
0.00320883
0.0029287
0.0026712
0.00243422
0.00220845
0.0020365
0.00189745
0.00178908
0.00167713
0.00150032
0.00128971
0.000971621
0.000665785
0.000484637
0.000250317
0.00925791
0.00778321
0.00617166
0.00621699
0.00646564
0.00638591
0.0062367
0.00596177
0.00557811
0.00515618
0.00476736
0.00441717
0.00408435
0.00377004
0.00347764
0.00319477
0.00291821
0.00265805
0.00242489
0.00221032
0.00202148
0.00189503
0.00179906
0.0016869
0.00151012
0.00129569
0.00100496
0.000652198
0.000498092
0.000255343
0.00829524
0.00706178
0.0057231
0.005946
0.00627413
0.00625475
0.00616242
0.00592692
0.0055536
0.0051419
0.0047672
0.00441632
0.00408017
0.00376827
0.00347283
0.00318772
0.00291258
0.00265261
0.002416
0.00220903
0.00202452
0.00189001
0.00180727
0.00169604
0.00151145
0.00130135
0.00104007
0.000648577
0.000494534
0.000254102
0.00846614
0.00689856
0.00542787
0.00573265
0.00612731
0.00616583
0.00611476
0.00590009
0.00553965
0.00513557
0.00476174
0.00441725
0.00408566
0.00377256
0.00347524
0.003189
0.00291398
0.00265455
0.00241867
0.00220339
0.00202326
0.00189324
0.00181313
0.0017015
0.00151308
0.00130846
0.00105697
0.000656877
0.000494598
0.00025152
0.00849709
0.00682027
0.00529442
0.00562916
0.00605682
0.0061236
0.00609235
0.00588901
0.00553622
0.00513742
0.00476478
0.00442305
0.00409552
0.00378331
0.00348626
0.00319953
0.00292335
0.00266247
0.00242446
0.0022049
0.00202614
0.00189697
0.00181626
0.0017039
0.00151504
0.00131283
0.00106419
0.000663414
0.000496885
0.000250846
0.00810061
0.00668602
0.0053113
0.00564457
0.0060714
0.0061329
0.00609784
0.00589686
0.00554501
0.00514665
0.00478004
0.0044385
0.0041083
0.00380013
0.00350587
0.00321926
0.00294031
0.00267482
0.00243339
0.00221832
0.00203262
0.00189935
0.00181727
0.00170396
0.00151562
0.00131144
0.00106433
0.000668109
0.000500591
0.000251802
0.00799835
0.00678095
0.00546945
0.00575021
0.00615401
0.00619316
0.0061364
0.00592233
0.00556876
0.00516801
0.00480054
0.00445598
0.00413028
0.00382422
0.00353354
0.00324749
0.0029648
0.00269485
0.00244799
0.00223206
0.00204109
0.00190658
0.00181667
0.00170067
0.00151487
0.00130385
0.00105205
0.000677988
0.000507439
0.000252272
0.00910066
0.00740741
0.00577495
0.00590206
0.00627611
0.0063031
0.00620542
0.00596023
0.00560355
0.00520518
0.00481998
0.00448081
0.00415974
0.00385487
0.00356712
0.00328263
0.00299491
0.0027211
0.00247443
0.00224011
0.00205065
0.00192
0.00181555
0.00169421
0.00151042
0.0012928
0.00101999
0.000699326
0.000519982
0.000251071
0.0096665
0.00796494
0.00627987
0.00623085
0.00641701
0.00640824
0.00628994
0.00601185
0.00564281
0.00524644
0.00486325
0.00450405
0.0041891
0.00388778
0.00360679
0.00332393
0.00302919
0.00275283
0.0024924
0.00225647
0.00207688
0.0019284
0.00181909
0.00169082
0.00149577
0.00125672
0.00100973
0.000710405
0.000510251
0.000262248
0.00884829
0.00814935
0.00685381
0.0066506
0.00667713
0.0065164
0.00634377
0.00607429
0.00569074
0.00528893
0.00490774
0.00453669
0.00420883
0.00392866
0.00364993
0.00336291
0.00307656
0.0027789
0.00250618
0.00228683
0.00210206
0.00194383
0.00182652
0.00167418
0.00145157
0.00124728
0.00103054
0.000710556
0.000473575
0.000266457
0.00920265
0.00847426
0.00732371
0.00703478
0.00693348
0.00667973
0.00641505
0.00611084
0.00573078
0.00533055
0.00494293
0.00456443
0.00424918
0.003968
0.00368399
0.00339846
0.00311349
0.00282195
0.00253825
0.00231192
0.00213191
0.0019614
0.00181504
0.00163287
0.00145365
0.0012653
0.00102094
0.000685773
0.00044528
0.00025007
0.00896681
0.0087949
0.0078875
0.00742335
0.00716934
0.00681042
0.00650687
0.00613095
0.00573663
0.0053472
0.00495995
0.00461054
0.00428921
0.00399777
0.00371731
0.00343361
0.00314646
0.00285905
0.00258947
0.00235306
0.00214301
0.00197331
0.00177764
0.00164296
0.00145969
0.00125685
0.00100959
0.000673721
0.000420357
0.000229947
0.0117895
0.0101751
0.00833177
0.00768958
0.00733839
0.00689975
0.00653615
0.00614537
0.00571843
0.00534645
0.00498312
0.0046442
0.00432405
0.00402819
0.00374938
0.00346719
0.00318061
0.00289502
0.00263279
0.00238982
0.00216573
0.00195487
0.00178543
0.00165913
0.00145755
0.0012616
0.000999744
0.000659351
0.00041006
0.000226271
0.0163354
0.0123258
0.00880954
0.00784974
0.00739682
0.00690925
0.0064691
0.00609846
0.00573416
0.00535382
0.00499608
0.00466254
0.00435059
0.00406122
0.00377956
0.0034978
0.00321578
0.00293379
0.00266693
0.00241726
0.00218762
0.00198636
0.00179643
0.00161541
0.00148648
0.0012532
0.000996203
0.000654645
0.000400964
0.000222613
0.0188341
0.0139025
0.00929536
0.00789681
0.00729781
0.00674777
0.00636365
0.00602919
0.00572141
0.00537498
0.00499596
0.00467327
0.00437556
0.00409179
0.00380615
0.00352529
0.00324806
0.00297419
0.00269863
0.00243962
0.00222809
0.00204329
0.00181332
0.00161557
0.00141158
0.00123717
0.00103089
0.000657892
0.000397317
0.000225828
0.0207475
0.0150246
0.00935409
0.00761525
0.00699152
0.00649046
0.00622118
0.00597526
0.00566502
0.0053568
0.00502106
0.00468206
0.00439343
0.00411703
0.0038307
0.00355027
0.00327897
0.00300601
0.00272409
0.00248159
0.00227962
0.00206046
0.00185528
0.00166222
0.00134026
0.0012169
0.00103565
0.000665612
0.000419245
0.000246012
0.0223976
0.0154604
0.00850893
0.0068192
0.00652028
0.00624174
0.00606713
0.00589054
0.00563219
0.00532865
0.00501764
0.00470259
0.00441462
0.00413798
0.00384813
0.00356823
0.00330204
0.00303772
0.0027569
0.00251776
0.00229567
0.00208957
0.00188092
0.00166427
0.00142513
0.00131558
0.000961875
0.000632297
0.000501324
0.000301819
0.0227329
0.0135416
0.00620096
0.0057806
0.00600432
0.00605127
0.00597694
0.00581655
0.00558975
0.00531283
0.00500086
0.00471561