# Wall shear stress
# Time          	patch           	min             	max             
0.0001          	sphere1	(-6.76028934e-06 -3.24839751e-06 -3.23772151e-06)	(7.35092136e-07 3.22952754e-06 3.22930280e-06)
0.0002          	sphere1	(-5.96670110e-06 -3.12523519e-06 -3.13051124e-06)	(2.40556235e-06 3.11560579e-06 3.12451917e-06)
0.0003          	sphere1	(-5.71967652e-06 -3.29625008e-06 -3.28622156e-06)	(2.95689060e-06 3.29633673e-06 3.29965768e-06)
0.0004          	sphere1	(-5.63110421e-06 -3.42121744e-06 -3.41605554e-06)	(3.05477937e-06 3.42752790e-06 3.42836575e-06)
0.0005          	sphere1	(-5.56913676e-06 -3.47054448e-06 -3.46891308e-06)	(3.03167254e-06 3.47662797e-06 3.47574597e-06)
0.0006          	sphere1	(-5.50976610e-06 -3.48627983e-06 -3.48730224e-06)	(2.70182968e-06 3.49045748e-06 3.49109827e-06)
0.0007          	sphere1	(-5.43420404e-06 -3.48358159e-06 -3.48827130e-06)	(2.41818461e-06 3.48792995e-06 3.48952238e-06)
0.0008          	sphere1	(-5.35586073e-06 -3.47699257e-06 -3.48036331e-06)	(2.15557140e-06 3.47874558e-06 3.48047736e-06)
0.0009          	sphere1	(-5.31527796e-06 -3.46471828e-06 -3.46736307e-06)	(2.10845376e-06 3.46601132e-06 3.46627754e-06)
0.001           	sphere1	(-5.30256502e-06 -3.45307013e-06 -3.45566184e-06)	(2.07379758e-06 3.45184717e-06 3.45162858e-06)
0.0011          	sphere1	(-5.29008302e-06 -3.43911072e-06 -3.44309685e-06)	(1.98240533e-06 3.43659201e-06 3.43540619e-06)
0.0012          	sphere1	(-5.27722381e-06 -3.42776935e-06 -3.43216559e-06)	(1.89094415e-06 3.42324453e-06 3.42217909e-06)
0.0013          	sphere1	(-5.26677014e-06 -3.41561880e-06 -3.42049366e-06)	(1.78782277e-06 3.40970473e-06 3.40825136e-06)
0.0014          	sphere1	(-5.25782107e-06 -3.40693960e-06 -3.41116046e-06)	(1.69920513e-06 3.39869981e-06 3.39765775e-06)
0.0015          	sphere1	(-5.25156679e-06 -3.39727173e-06 -3.40153661e-06)	(1.59325078e-06 3.38733260e-06 3.38689252e-06)
0.0016          	sphere1	(-5.24633162e-06 -3.39005166e-06 -3.39410306e-06)	(1.46931183e-06 3.37887866e-06 3.37895355e-06)
0.0017          	sphere1	(-5.24386348e-06 -3.38206002e-06 -3.38726059e-06)	(1.35088533e-06 3.37013208e-06 3.36984784e-06)
0.0018          	sphere1	(-5.24117899e-06 -3.37659140e-06 -3.38198552e-06)	(1.25460565e-06 3.36429144e-06 3.36379733e-06)
0.0019          	sphere1	(-5.23948979e-06 -3.36958136e-06 -3.37647880e-06)	(1.19734406e-06 3.35780722e-06 3.35589722e-06)
0.002           	sphere1	(-5.23600679e-06 -3.36452069e-06 -3.37225797e-06)	(1.17188992e-06 3.35359624e-06 3.35038589e-06)
0.0021          	sphere1	(-5.23289314e-06 -3.35734815e-06 -3.36760046e-06)	(1.17388872e-06 3.34755269e-06 3.34283813e-06)
0.0022          	sphere1	(-5.22843877e-06 -3.35254242e-06 -3.36318807e-06)	(1.20404748e-06 3.34366553e-06 3.33670184e-06)
0.0023          	sphere1	(-5.22547474e-06 -3.34623682e-06 -3.35953788e-06)	(1.25138092e-06 3.33823732e-06 3.32838497e-06)
0.0024          	sphere1	(-5.22263920e-06 -3.34282323e-06 -3.35626041e-06)	(1.30614653e-06 3.33522952e-06 3.32195320e-06)
0.0025          	sphere1	(-5.22198155e-06 -3.33772392e-06 -3.35500023e-06)	(1.35991115e-06 3.33041093e-06 3.31340212e-06)
0.0026          	sphere1	(-5.22138759e-06 -3.33493165e-06 -3.35488009e-06)	(1.40554876e-06 3.32817335e-06 3.30681097e-06)
0.0027          	sphere1	(-5.22337876e-06 -3.33159111e-06 -3.35553776e-06)	(1.43809070e-06 3.32397444e-06 3.29887970e-06)
0.0028          	sphere1	(-5.22563819e-06 -3.33182924e-06 -3.35767272e-06)	(1.45389058e-06 3.32234943e-06 3.29343388e-06)
0.0029          	sphere1	(-5.23042704e-06 -3.33090062e-06 -3.36219627e-06)	(1.46350474e-06 3.31874504e-06 3.28604846e-06)
0.003           	sphere1	(-5.23511060e-06 -3.33272010e-06 -3.36529965e-06)	(1.45727865e-06 3.31751784e-06 3.27968366e-06)
0.0031          	sphere1	(-5.24267246e-06 -3.33268605e-06 -3.37028196e-06)	(1.42794148e-06 3.31572466e-06 3.27093852e-06)
0.0032          	sphere1	(-5.25114253e-06 -3.33361925e-06 -3.37436307e-06)	(1.37171887e-06 3.31400126e-06 3.26397407e-06)
0.0033          	sphere1	(-5.26201163e-06 -3.33210239e-06 -3.38137661e-06)	(1.28464720e-06 3.31256659e-06 3.25419307e-06)
0.0034          	sphere1	(-5.27211453e-06 -3.33318635e-06 -3.38590379e-06)	(1.20912349e-06 3.31296360e-06 3.24573028e-06)
0.0035          	sphere1	(-5.28342306e-06 -3.33455582e-06 -3.39249116e-06)	(1.11099976e-06 3.31206491e-06 3.23607969e-06)
0.0036          	sphere1	(-5.29252452e-06 -3.33847413e-06 -3.39662161e-06)	(9.90564504e-07 3.31387664e-06 3.23018718e-06)
0.0037          	sphere1	(-5.30181440e-06 -3.34060009e-06 -3.40192018e-06)	(8.25032445e-07 3.31436974e-06 3.22432310e-06)
0.0038          	sphere1	(-5.30843211e-06 -3.34442552e-06 -3.40474839e-06)	(7.33338090e-07 3.31620037e-06 3.22380106e-06)
0.0039          	sphere1	(-5.31340181e-06 -3.34586964e-06 -3.40830999e-06)	(7.58014477e-07 3.31702247e-06 3.22383810e-06)
0.004           	sphere1	(-5.31379249e-06 -3.34757402e-06 -3.40775223e-06)	(7.80954159e-07 3.32011664e-06 3.23047829e-06)
0.0041          	sphere1	(-5.31129936e-06 -3.34767877e-06 -3.40643894e-06)	(7.63162604e-07 3.32261540e-06 3.23990613e-06)
0.0042          	sphere1	(-5.30375857e-06 -3.34989904e-06 -3.40109277e-06)	(7.54934769e-07 3.32775341e-06 3.25537705e-06)
0.0043          	sphere1	(-5.29388868e-06 -3.34982400e-06 -3.39564183e-06)	(8.35443587e-07 3.33193023e-06 3.27266640e-06)
0.0044          	sphere1	(-5.28037228e-06 -3.35145027e-06 -3.38619741e-06)	(8.23080735e-07 3.33832160e-06 3.29367313e-06)
0.0045          	sphere1	(-5.26668251e-06 -3.35070279e-06 -3.37686669e-06)	(8.12091652e-07 3.34230929e-06 3.31421144e-06)
0.0046          	sphere1	(-5.25224857e-06 -3.35092170e-06 -3.36544219e-06)	(8.62790862e-07 3.34749656e-06 3.33518211e-06)
0.0047          	sphere1	(-5.26122350e-06 -3.34945597e-06 -3.35595027e-06)	(1.04184215e-06 3.34970154e-06 3.35267198e-06)
0.0048          	sphere1	(-5.27866053e-06 -3.34833328e-06 -3.34727342e-06)	(1.16682732e-06 3.35306602e-06 3.36773690e-06)
0.0049          	sphere1	(-5.29066076e-06 -3.34618679e-06 -3.34307954e-06)	(1.22068470e-06 3.35285562e-06 3.37686796e-06)
0.005           	sphere1	(-5.29272047e-06 -3.34580420e-06 -3.33990719e-06)	(1.18426169e-06 3.35369008e-06 3.38301392e-06)
0.0051          	sphere1	(-5.28858254e-06 -3.34467212e-06 -3.34058295e-06)	(1.11976085e-06 3.35214927e-06 3.38243543e-06)
0.0052          	sphere1	(-5.27632426e-06 -3.34589889e-06 -3.34271311e-06)	(1.05866427e-06 3.35083006e-06 3.38003194e-06)
0.0053          	sphere1	(-5.26135855e-06 -3.34677123e-06 -3.34803453e-06)	(9.81682245e-07 3.34976928e-06 3.37306633e-06)
0.0054          	sphere1	(-5.25199462e-06 -3.34880466e-06 -3.35260260e-06)	(9.43340664e-07 3.34828987e-06 3.36682217e-06)
0.0055          	sphere1	(-5.25786488e-06 -3.34986133e-06 -3.35871668e-06)	(9.93929163e-07 3.34726285e-06 3.35790694e-06)
0.0056          	sphere1	(-5.25958861e-06 -3.35131558e-06 -3.36196509e-06)	(1.01854715e-06 3.34585881e-06 3.35194560e-06)
0.0057          	sphere1	(-5.25892807e-06 -3.35065114e-06 -3.36557335e-06)	(1.01544448e-06 3.34419145e-06 3.34527366e-06)
0.0058          	sphere1	(-5.25459057e-06 -3.35042331e-06 -3.36525371e-06)	(9.90018292e-07 3.34241071e-06 3.34225028e-06)
0.0059          	sphere1	(-5.24932233e-06 -3.34819605e-06 -3.36536121e-06)	(1.00371870e-06 3.34097329e-06 3.33937344e-06)
0.006           	sphere1	(-5.24221299e-06 -3.34738604e-06 -3.36258985e-06)	(1.07506212e-06 3.33867494e-06 3.33870975e-06)
0.0061          	sphere1	(-5.23648965e-06 -3.34501906e-06 -3.36097074e-06)	(1.15791005e-06 3.33754062e-06 3.33624115e-06)
0.0062          	sphere1	(-5.23104034e-06 -3.34399786e-06 -3.35819319e-06)	(1.21992527e-06 3.33483644e-06 3.33435319e-06)
0.0063          	sphere1	(-5.22873791e-06 -3.34175522e-06 -3.35808955e-06)	(1.26150803e-06 3.33369072e-06 3.33069342e-06)
0.0064          	sphere1	(-5.22739894e-06 -3.34081585e-06 -3.35622648e-06)	(1.28742417e-06 3.33073026e-06 3.32831590e-06)
0.0065          	sphere1	(-5.22875616e-06 -3.33914851e-06 -3.35713222e-06)	(1.30568380e-06 3.32940765e-06 3.32375456e-06)
0.0066          	sphere1	(-5.23019254e-06 -3.33931233e-06 -3.35708323e-06)	(1.31990611e-06 3.32722199e-06 3.31950425e-06)
0.0067          	sphere1	(-5.23344946e-06 -3.33861777e-06 -3.35909245e-06)	(1.33350557e-06 3.32544376e-06 3.31289620e-06)
0.0068          	sphere1	(-5.23611186e-06 -3.33962791e-06 -3.35984574e-06)	(1.34791919e-06 3.32430746e-06 3.30754221e-06)
0.0069          	sphere1	(-5.23994306e-06 -3.33958511e-06 -3.36266026e-06)	(1.35891853e-06 3.32271839e-06 3.30140982e-06)
0.007           	sphere1	(-5.24294608e-06 -3.34073596e-06 -3.36437620e-06)	(1.35985961e-06 3.32204846e-06 3.29719459e-06)
0.0071          	sphere1	(-5.24702686e-06 -3.34041149e-06 -3.36781478e-06)	(1.36436736e-06 3.32067834e-06 3.29171178e-06)
0.0072          	sphere1	(-5.24997469e-06 -3.34128764e-06 -3.36946534e-06)	(1.35179338e-06 3.31983101e-06 3.28818176e-06)
0.0073          	sphere1	(-5.25403773e-06 -3.34137852e-06 -3.37223204e-06)	(1.31865535e-06 3.31876109e-06 3.28393589e-06)
0.0074          	sphere1	(-5.25716874e-06 -3.34184803e-06 -3.37391601e-06)	(1.29225424e-06 3.31777141e-06 3.28076692e-06)
0.0075          	sphere1	(-5.26130148e-06 -3.34155657e-06 -3.37659706e-06)	(1.26678255e-06 3.31839644e-06 3.27689279e-06)
0.0076          	sphere1	(-5.26442411e-06 -3.34373816e-06 -3.37781833e-06)	(1.22939833e-06 3.31859791e-06 3.27473821e-06)
0.0077          	sphere1	(-5.26839050e-06 -3.34413763e-06 -3.38052599e-06)	(1.18495141e-06 3.31919056e-06 3.27250138e-06)
0.0078          	sphere1	(-5.27090184e-06 -3.34631963e-06 -3.38119499e-06)	(1.14939476e-06 3.32031574e-06 3.27254881e-06)
0.0079          	sphere1	(-5.27392269e-06 -3.34673926e-06 -3.38258169e-06)	(1.12207253e-06 3.32078146e-06 3.27235690e-06)
0.008           	sphere1	(-5.27535314e-06 -3.34849679e-06 -3.38243556e-06)	(1.10268438e-06 3.32296997e-06 3.27422326e-06)
0.0081          	sphere1	(-5.27704684e-06 -3.34812548e-06 -3.38368357e-06)	(1.09316077e-06 3.32422068e-06 3.27567696e-06)
0.0082          	sphere1	(-5.27677386e-06 -3.34923388e-06 -3.38259970e-06)	(1.08966528e-06 3.32666704e-06 3.27932418e-06)
0.0083          	sphere1	(-5.27598144e-06 -3.34880500e-06 -3.38230890e-06)	(1.09417339e-06 3.32753164e-06 3.28285537e-06)
0.0084          	sphere1	(-5.27493598e-06 -3.35041313e-06 -3.38051098e-06)	(1.10332825e-06 3.32959145e-06 3.28764879e-06)
0.0085          	sphere1	(-5.27330776e-06 -3.35001379e-06 -3.37892987e-06)	(1.10104780e-06 3.33022400e-06 3.29240951e-06)
0.0086          	sphere1	(-5.27165357e-06 -3.35126934e-06 -3.37755492e-06)	(1.11042339e-06 3.33239417e-06 3.29838943e-06)
0.0087          	sphere1	(-5.27024262e-06 -3.35035346e-06 -3.37582343e-06)	(1.11031580e-06 3.33284253e-06 3.30281991e-06)
0.0088          	sphere1	(-5.26888476e-06 -3.35061407e-06 -3.37364259e-06)	(1.10874755e-06 3.33472724e-06 3.30746443e-06)
0.0089          	sphere1	(-5.26830340e-06 -3.34945868e-06 -3.37332830e-06)	(1.09752211e-06 3.33477655e-06 3.30968659e-06)
0.009           	sphere1	(-5.26670276e-06 -3.35038735e-06 -3.37144647e-06)	(1.08138271e-06 3.33610088e-06 3.31261343e-06)
0.0091          	sphere1	(-5.26632042e-06 -3.34985926e-06 -3.37129260e-06)	(1.06616690e-06 3.33609216e-06 3.31375406e-06)
0.0092          	sphere1	(-5.26499395e-06 -3.35107637e-06 -3.36968788e-06)	(1.06954112e-06 3.33738953e-06 3.31634990e-06)
0.0093          	sphere1	(-5.26443163e-06 -3.35034609e-06 -3.37013388e-06)	(1.08453591e-06 3.33710129e-06 3.31674989e-06)
0.0094          	sphere1	(-5.26256729e-06 -3.35121657e-06 -3.36867809e-06)	(1.09558072e-06 3.33794513e-06 3.31839384e-06)
0.0095          	sphere1	(-5.26130694e-06 -3.35036947e-06 -3.36872935e-06)	(1.10508219e-06 3.33723623e-06 3.31844781e-06)
0.0096          	sphere1	(-5.25840296e-06 -3.35063814e-06 -3.36688112e-06)	(1.11265270e-06 3.33751844e-06 3.32020633e-06)
0.0097          	sphere1	(-5.25586705e-06 -3.34983794e-06 -3.36626088e-06)	(1.11949642e-06 3.33709925e-06 3.32035436e-06)
0.0098          	sphere1	(-5.25156570e-06 -3.34997775e-06 -3.36398951e-06)	(1.12693763e-06 3.33631071e-06 3.32208836e-06)
0.0099          	sphere1	(-5.24776440e-06 -3.34868541e-06 -3.36355369e-06)	(1.13533846e-06 3.33632805e-06 3.32226727e-06)
0.01            	sphere1	(-5.24244454e-06 -3.34773225e-06 -3.36068585e-06)	(1.14553675e-06 3.33568938e-06 3.32380803e-06)
0.0101          	sphere1	(-5.23866007e-06 -3.34595420e-06 -3.35980104e-06)	(1.15434525e-06 3.33521287e-06 3.32394789e-06)
0.0102          	sphere1	(-5.23429953e-06 -3.34476752e-06 -3.35726181e-06)	(1.16874833e-06 3.33433162e-06 3.32483557e-06)
0.0103          	sphere1	(-5.23138163e-06 -3.34267205e-06 -3.35644106e-06)	(1.18729795e-06 3.33396770e-06 3.32430768e-06)
0.0104          	sphere1	(-5.22779426e-06 -3.34266732e-06 -3.35389034e-06)	(1.20619507e-06 3.33272919e-06 3.32501901e-06)
0.0105          	sphere1	(-5.22572359e-06 -3.34168874e-06 -3.35297201e-06)	(1.22551590e-06 3.33246952e-06 3.32420362e-06)
0.0106          	sphere1	(-5.22263609e-06 -3.34203550e-06 -3.35201752e-06)	(1.24617393e-06 3.33113310e-06 3.32429703e-06)
0.0107          	sphere1	(-5.22064840e-06 -3.34114008e-06 -3.35162471e-06)	(1.26308389e-06 3.33050830e-06 3.32279440e-06)
0.0108          	sphere1	(-5.21794434e-06 -3.34082401e-06 -3.35033729e-06)	(1.27597460e-06 3.32888412e-06 3.32209717e-06)
0.0109          	sphere1	(-5.21654630e-06 -3.33969805e-06 -3.35096869e-06)	(1.28696487e-06 3.32832305e-06 3.32040794e-06)
0.011           	sphere1	(-5.21430217e-06 -3.33997523e-06 -3.34969092e-06)	(1.29609847e-06 3.32717902e-06 3.32034804e-06)
0.0111          	sphere1	(-5.21327085e-06 -3.33913956e-06 -3.35004854e-06)	(1.30526604e-06 3.32698246e-06 3.31893453e-06)
0.0112          	sphere1	(-5.21134396e-06 -3.33933876e-06 -3.34910981e-06)	(1.31297727e-06 3.32556980e-06 3.31862607e-06)
0.0113          	sphere1	(-5.21079377e-06 -3.33851071e-06 -3.34974478e-06)	(1.32018186e-06 3.32513990e-06 3.31710551e-06)
0.0114          	sphere1	(-5.20940877e-06 -3.33904447e-06 -3.34896597e-06)	(1.32679277e-06 3.32368083e-06 3.31653188e-06)
0.0115          	sphere1	(-5.20938147e-06 -3.33864893e-06 -3.34973724e-06)	(1.33122593e-06 3.32322364e-06 3.31509701e-06)
0.0116          	sphere1	(-5.20852262e-06 -3.33954309e-06 -3.34858090e-06)	(1.33660343e-06 3.32166421e-06 3.31515797e-06)
0.0117          	sphere1	(-5.20888493e-06 -3.33932275e-06 -3.34915597e-06)	(1.34223602e-06 3.32155877e-06 3.31407080e-06)
0.0118          	sphere1	(-5.20854615e-06 -3.33996940e-06 -3.34821226e-06)	(1.34749496e-06 3.32030113e-06 3.31410192e-06)
0.0119          	sphere1	(-5.20917618e-06 -3.33968209e-06 -3.34874657e-06)	(1.35214944e-06 3.32034677e-06 3.31261868e-06)
0.012           	sphere1	(-5.20888806e-06 -3.34016772e-06 -3.34819114e-06)	(1.35622772e-06 3.31899801e-06 3.31278781e-06)
0.0121          	sphere1	(-5.20982399e-06 -3.33964618e-06 -3.34947058e-06)	(1.35968953e-06 3.31881451e-06 3.31104695e-06)
0.0122          	sphere1	(-5.21001367e-06 -3.34048045e-06 -3.34941164e-06)	(1.36257173e-06 3.31763750e-06 3.31055189e-06)
0.0123          	sphere1	(-5.21151009e-06 -3.34020698e-06 -3.35034758e-06)	(1.36517463e-06 3.31756998e-06 3.30939243e-06)
0.0124          	sphere1	(-5.21211855e-06 -3.34151637e-06 -3.35004847e-06)	(1.36652512e-06 3.31651403e-06 3.30989850e-06)
0.0125          	sphere1	(-5.21381420e-06 -3.34131023e-06 -3.35113238e-06)	(1.36679651e-06 3.31649403e-06 3.30862123e-06)
0.0126          	sphere1	(-5.21457400e-06 -3.34248225e-06 -3.35091419e-06)	(1.36603592e-06 3.31536179e-06 3.30887170e-06)
0.0127          	sphere1	(-5.21631177e-06 -3.34223328e-06 -3.35245938e-06)	(1.36440698e-06 3.31543011e-06 3.30774443e-06)
0.0128          	sphere1	(-5.21709663e-06 -3.34388279e-06 -3.35207996e-06)	(1.36197066e-06 3.31418324e-06 3.30789281e-06)
0.0129          	sphere1	(-5.21898919e-06 -3.34424629e-06 -3.35313188e-06)	(1.35884894e-06 3.31400986e-06 3.30668702e-06)
0.013           	sphere1	(-5.21994336e-06 -3.34613962e-06 -3.35268096e-06)	(1.35509929e-06 3.31274114e-06 3.30741474e-06)
0.0131          	sphere1	(-5.22191061e-06 -3.34678976e-06 -3.35356486e-06)	(1.35083351e-06 3.31255218e-06 3.30648371e-06)
0.0132          	sphere1	(-5.22280854e-06 -3.34782564e-06 -3.35312497e-06)	(1.34610396e-06 3.31167631e-06 3.30700447e-06)
0.0133          	sphere1	(-5.22475958e-06 -3.34768046e-06 -3.35423035e-06)	(1.34095366e-06 3.31167710e-06 3.30658397e-06)
0.0134          	sphere1	(-5.22565359e-06 -3.34825712e-06 -3.35395778e-06)	(1.33535067e-06 3.31065995e-06 3.30786301e-06)
0.0135          	sphere1	(-5.22749085e-06 -3.34792573e-06 -3.35464532e-06)	(1.32941299e-06 3.31107359e-06 3.30771959e-06)
0.0136          	sphere1	(-5.22825490e-06 -3.34909884e-06 -3.35484229e-06)	(1.32308353e-06 3.31048461e-06 3.30886156e-06)
0.0137          	sphere1	(-5.22993175e-06 -3.34941784e-06 -3.35630851e-06)	(1.31671402e-06 3.31122914e-06 3.30866453e-06)
0.0138          	sphere1	(-5.23058761e-06 -3.35103114e-06 -3.35598287e-06)	(1.31014920e-06 3.31078183e-06 3.30954477e-06)
0.0139          	sphere1	(-5.23214543e-06 -3.35095028e-06 -3.35720166e-06)	(1.30388119e-06 3.31159439e-06 3.30952643e-06)
0.014           	sphere1	(-5.23251372e-06 -3.35255851e-06 -3.35653190e-06)	(1.29766696e-06 3.31127996e-06 3.31101080e-06)
0.0141          	sphere1	(-5.23376153e-06 -3.35280000e-06 -3.35723451e-06)	(1.29192847e-06 3.31139875e-06 3.31099159e-06)
0.0142          	sphere1	(-5.23377644e-06 -3.35340998e-06 -3.35617171e-06)	(1.28630515e-06 3.31153739e-06 3.31188842e-06)
0.0143          	sphere1	(-5.23458683e-06 -3.35308689e-06 -3.35680088e-06)	(1.28142501e-06 3.31166643e-06 3.31174941e-06)
0.0144          	sphere1	(-5.23435445e-06 -3.35338210e-06 -3.35587453e-06)	(1.27663589e-06 3.31231079e-06 3.31305251e-06)
0.0145          	sphere1	(-5.23501436e-06 -3.35254326e-06 -3.35600469e-06)	(1.27234594e-06 3.31213172e-06 3.31324465e-06)
0.0146          	sphere1	(-5.23447870e-06 -3.35350175e-06 -3.35601806e-06)	(1.26808583e-06 3.31350602e-06 3.31510006e-06)
0.0147          	sphere1	(-5.23498690e-06 -3.35295942e-06 -3.35549874e-06)	(1.26446453e-06 3.31329655e-06 3.31522681e-06)
0.0148          	sphere1	(-5.23431584e-06 -3.35367664e-06 -3.35547430e-06)	(1.26081195e-06 3.31452452e-06 3.31636942e-06)
0.0149          	sphere1	(-5.23451987e-06 -3.35284830e-06 -3.35486484e-06)	(1.25784493e-06 3.31441498e-06 3.31645884e-06)
0.015           	sphere1	(-5.23361332e-06 -3.35338493e-06 -3.35405522e-06)	(1.25488037e-06 3.31546412e-06 3.31761361e-06)
0.0151          	sphere1	(-5.23346527e-06 -3.35275535e-06 -3.35487691e-06)	(1.25229155e-06 3.31550805e-06 3.31784460e-06)
0.0152          	sphere1	(-5.23206027e-06 -3.35307316e-06 -3.35377243e-06)	(1.24974856e-06 3.31650900e-06 3.31939826e-06)
0.0153          	sphere1	(-5.23158583e-06 -3.35232077e-06 -3.35400814e-06)	(1.24735713e-06 3.31602246e-06 3.31960828e-06)
0.0154          	sphere1	(-5.23020037e-06 -3.35253634e-06 -3.35291247e-06)	(1.24560621e-06 3.31694209e-06 3.32090593e-06)
0.0155          	sphere1	(-5.22988750e-06 -3.35157590e-06 -3.35368605e-06)	(1.24417308e-06 3.31663004e-06 3.32017789e-06)
0.0156          	sphere1	(-5.22814786e-06 -3.35192229e-06 -3.35224028e-06)	(1.24316741e-06 3.31828342e-06 3.32125488e-06)
0.0157          	sphere1	(-5.22763107e-06 -3.35099904e-06 -3.35273402e-06)	(1.24231862e-06 3.31787954e-06 3.32123392e-06)
0.0158          	sphere1	(-5.22582578e-06 -3.35126613e-06 -3.35132460e-06)	(1.24207751e-06 3.31920327e-06 3.32259344e-06)
0.0159          	sphere1	(-5.22506931e-06 -3.35027918e-06 -3.35091387e-06)	(1.24147593e-06 3.31850632e-06 3.32250254e-06)
0.016           	sphere1	(-5.22318271e-06 -3.34993891e-06 -3.34948211e-06)	(1.24246482e-06 3.31952074e-06 3.32308960e-06)
0.0161          	sphere1	(-5.22247021e-06 -3.34866996e-06 -3.34958966e-06)	(1.24271773e-06 3.31863716e-06 3.32256554e-06)
0.0162          	sphere1	(-5.22052899e-06 -3.34891372e-06 -3.34809651e-06)	(1.24455963e-06 3.31946972e-06 3.32359142e-06)
0.0163          	sphere1	(-5.21994777e-06 -3.34771177e-06 -3.34741094e-06)	(1.24645756e-06 3.31873047e-06 3.32347117e-06)
0.0164          	sphere1	(-5.21815715e-06 -3.34833768e-06 -3.34729407e-06)	(1.24839287e-06 3.31987396e-06 3.32410593e-06)
0.0165          	sphere1	(-5.21747761e-06 -3.34705332e-06 -3.34625448e-06)	(1.25067618e-06 3.31886958e-06 3.32346813e-06)
0.0166          	sphere1	(-5.21542575e-06 -3.34734278e-06 -3.34658552e-06)	(1.25327368e-06 3.31965698e-06 3.32398516e-06)
0.0167          	sphere1	(-5.21458964e-06 -3.34624106e-06 -3.34547146e-06)	(1.25625364e-06 3.31843930e-06 3.32348984e-06)
0.0168          	sphere1	(-5.21250085e-06 -3.34661064e-06 -3.34562687e-06)	(1.25944511e-06 3.31857119e-06 3.32464769e-06)
0.0169          	sphere1	(-5.21164317e-06 -3.34605305e-06 -3.34481632e-06)	(1.26289789e-06 3.31756890e-06 3.32378307e-06)
0.017           	sphere1	(-5.20986934e-06 -3.34636603e-06 -3.34449259e-06)	(1.26646671e-06 3.31850645e-06 3.32495506e-06)
0.0171          	sphere1	(-5.20933585e-06 -3.34574991e-06 -3.34402916e-06)	(1.27017654e-06 3.31737183e-06 3.32445158e-06)
0.0172          	sphere1	(-5.20764566e-06 -3.34657899e-06 -3.34377269e-06)	(1.27390788e-06 3.31775287e-06 3.32502355e-06)
0.0173          	sphere1	(-5.20715975e-06 -3.34611985e-06 -3.34380525e-06)	(1.27771939e-06 3.31738224e-06 3.32404266e-06)
0.0174          	sphere1	(-5.20582964e-06 -3.34616155e-06 -3.34307937e-06)	(1.28039821e-06 3.31672400e-06 3.32403542e-06)
0.0175          	sphere1	(-5.20567182e-06 -3.34532006e-06 -3.34351063e-06)	(1.28396964e-06 3.31732305e-06 3.32293328e-06)
