/*--------------------------------*- C++ -*----------------------------------*\
| =========                 |                                                 |
| \\      /  F ield         | OpenFOAM: The Open Source CFD Toolbox           |
|  \\    /   O peration     | Version:  2212                                  |
|   \\  /    A nd           | Website:  www.openfoam.com                      |
|    \\/     M anipulation  |                                                 |
\*---------------------------------------------------------------------------*/
FoamFile
{
    version     2.0;
    format      ascii;
    arch        "LSB;label=32;scalar=64";
    class       volScalarField;
    location    "0";
    object      p;
}
// * * * * * * * * * * * * * * * * * * * * * * * * * * * * * * * * * * * * * //

dimensions      [0 2 -2 0 0 0 0];

internalField   nonuniform List<scalar> 
179928
(
-0.000784257
-0.000274905
-2.86007e-05
1.27012e-05
3.39801e-05
4.34536e-05
4.80012e-05
4.92754e-05
4.64461e-05
4.24895e-05
4.83541e-05
4.51373e-05
3.99597e-05
3.82713e-05
3.53282e-05
3.31095e-05
3.07252e-05
2.87835e-05
2.67292e-05
2.78073e-05
2.21659e-05
1.50226e-05
1.86509e-05
1.69436e-05
1.56644e-05
1.48833e-05
1.55873e-05
1.71411e-05
4.60997e-05
3.67792e-05
-0.000324043
-0.000168044
-3.7186e-05
1.29184e-05
3.50166e-05
4.44303e-05
4.81806e-05
4.88045e-05
4.75846e-05
4.59554e-05
4.55916e-05
4.40966e-05
4.08327e-05
3.81432e-05
3.5504e-05
3.30757e-05
3.08366e-05
2.88705e-05
2.71653e-05
2.51506e-05
2.17929e-05
1.8744e-05
1.76338e-05
1.64246e-05
1.52172e-05
1.41713e-05
1.31141e-05
1.18952e-05
1.4423e-05
1.15979e-05
-0.000268085
-8.04289e-05
1.39531e-05
3.02624e-05
4.15018e-05
4.74544e-05
4.98415e-05
4.98371e-05
4.8507e-05
4.70923e-05
4.56581e-05
4.35623e-05
4.08117e-05
3.8121e-05
3.55657e-05
3.31307e-05
3.08445e-05
2.86864e-05
2.67024e-05
2.4557e-05
2.19777e-05
1.93568e-05
1.75731e-05
1.62279e-05
1.46922e-05
1.30915e-05
1.13836e-05
1.01599e-05
1.11717e-05
1.15682e-06
-0.000184529
-7.90789e-06
5.39228e-05
4.97888e-05
5.09323e-05
5.23324e-05
5.26547e-05
5.15134e-05
4.97703e-05
4.80841e-05
4.58673e-05
4.3458e-05
4.07767e-05
3.81202e-05
3.5566e-05
3.31045e-05
3.07525e-05
2.84857e-05
2.634e-05
2.41687e-05
2.19129e-05
1.97297e-05
1.75233e-05
1.6174e-05
1.44699e-05
1.27813e-05
1.14918e-05
1.20273e-05
1.42948e-05
-8.14539e-07
-0.000119363
2.94043e-05
7.22571e-05
6.40551e-05
6.00906e-05
5.77715e-05
5.59346e-05
5.39009e-05
5.13082e-05
4.87236e-05
4.62234e-05
4.35764e-05
4.08442e-05
3.81429e-05
3.55397e-05
3.30283e-05
3.06234e-05
2.83034e-05
2.60775e-05
2.38812e-05
2.16723e-05
1.95954e-05
1.79411e-05
1.61948e-05
1.44571e-05
1.28496e-05
1.19726e-05
1.11205e-05
1.2417e-05
3.41276e-06
-0.000157414
1.64854e-05
7.94791e-05
7.0521e-05
6.58104e-05
6.29381e-05
5.91497e-05
5.60772e-05
5.2675e-05
4.94428e-05
4.66669e-05
4.38176e-05
4.0985e-05
3.81877e-05
3.55075e-05
3.29345e-05
3.04841e-05
2.81368e-05
2.58748e-05
2.36555e-05
2.14516e-05
1.93974e-05
1.79602e-05
1.62086e-05
1.4719e-05
1.31146e-05
9.76124e-06
9.99578e-06
1.289e-05
3.18038e-06
-0.0001993
-1.13672e-05
7.26981e-05
7.39827e-05
7.01732e-05
6.46774e-05
6.12745e-05
5.7875e-05
5.39792e-05
5.0386e-05
4.70349e-05
4.40318e-05
4.1105e-05
3.82234e-05
3.54636e-05
3.28315e-05
3.03312e-05
2.79506e-05
2.56499e-05
2.33645e-05
2.12846e-05
1.94574e-05
1.79198e-05
1.63175e-05
1.37589e-05
1.23118e-05
1.1881e-05
1.05625e-05
1.15121e-05
2.16204e-06
-0.00022878
-3.54467e-05
6.29019e-05
7.14312e-05
7.08261e-05
6.72018e-05
6.26922e-05
5.86259e-05
5.49061e-05
5.11062e-05
4.75397e-05
4.42459e-05
4.11527e-05
3.82036e-05
3.5402e-05
3.27212e-05
3.01583e-05
2.77166e-05
2.54128e-05
2.32378e-05
2.1263e-05
1.94329e-05
1.78423e-05
1.59173e-05
1.4572e-05
1.30611e-05
1.16946e-05
1.05442e-05
1.12043e-05
2.22536e-06
-0.000248684
-5.06283e-05
5.50899e-05
6.78452e-05
6.99585e-05
6.71645e-05
6.33912e-05
5.94374e-05
5.53739e-05
5.14991e-05
4.78383e-05
4.44051e-05
4.11927e-05
3.81772e-05
3.5338e-05
3.26153e-05
3.00025e-05
2.75166e-05
2.52257e-05
2.3103e-05
2.11623e-05
1.93679e-05
1.78986e-05
1.64381e-05
1.46774e-05
1.36431e-05
1.22018e-05
1.06736e-05
1.16715e-05
2.61717e-06
-0.000262528
-5.68291e-05
5.15568e-05
6.47518e-05
6.76135e-05
6.62374e-05
6.31518e-05
5.95084e-05
5.55785e-05
5.16763e-05
4.79803e-05
4.4509e-05
4.12119e-05
3.81456e-05
3.52705e-05
3.2513e-05
2.98621e-05
2.7353e-05
2.50663e-05
2.297e-05
2.10407e-05
1.93496e-05
1.79102e-05
1.64675e-05
1.5029e-05
1.3755e-05
1.26757e-05
1.24492e-05
1.32205e-05
6.26836e-07
-0.000263767
-6.01856e-05
4.71046e-05
6.04274e-05
6.4817e-05
6.46837e-05
6.24558e-05
5.92333e-05
5.55176e-05
5.17066e-05
4.80423e-05
4.45318e-05
4.12178e-05
3.81167e-05
3.52033e-05
3.24169e-05
2.97441e-05
2.72307e-05
2.49299e-05
2.2839e-05
2.09508e-05
1.9304e-05
1.78992e-05
1.65455e-05
1.5152e-05
1.37228e-05
1.24166e-05
1.19633e-05
1.34415e-05
-1.22391e-06
-0.00025808
-6.87064e-05
3.90087e-05
5.6039e-05
6.21775e-05
6.30936e-05
6.15508e-05
5.87701e-05
5.53169e-05
5.16481e-05
4.79998e-05
4.45144e-05
4.12143e-05
3.80957e-05
3.51487e-05
3.23382e-05
2.96565e-05
2.71428e-05
2.48267e-05
2.27173e-05
2.08554e-05
1.92645e-05
1.78851e-05
1.66141e-05
1.52374e-05
1.38331e-05
1.26639e-05
1.21581e-05
9.08383e-06
-1.76734e-06
-0.000263371
-8.00171e-05
3.1108e-05
5.1937e-05
5.97666e-05
6.16039e-05
6.06355e-05
5.8262e-05
5.50776e-05
5.1518e-05
4.79281e-05
4.44826e-05
4.12048e-05
3.8087e-05
3.51226e-05
3.22952e-05
2.96059e-05
2.70832e-05
2.4751e-05
2.26302e-05
2.07776e-05
1.92238e-05
1.78928e-05
1.6641e-05
1.52979e-05
1.38743e-05
1.26307e-05
1.14811e-05
7.84422e-06
1.56133e-06
-0.000268989
-8.78559e-05
2.49893e-05
4.84458e-05
5.76862e-05
6.0315e-05
5.98585e-05
5.78182e-05
5.48353e-05
5.13894e-05
4.78652e-05
4.44624e-05
4.12112e-05
3.81044e-05
3.5135e-05
3.22973e-05
2.95985e-05
2.70618e-05
2.47123e-05
2.25812e-05
2.07315e-05
1.91988e-05
1.78945e-05
1.667e-05
1.53394e-05
1.38926e-05
1.26534e-05
1.15537e-05
8.14992e-06
1.3135e-06
-0.000274994
-9.25768e-05
2.15455e-05
4.60894e-05
5.61856e-05
5.93788e-05
5.92981e-05
5.74988e-05
5.46693e-05
5.13077e-05
4.78388e-05
4.44763e-05
4.12543e-05
3.81624e-05
3.51948e-05
3.23509e-05
2.96416e-05
2.7089e-05
2.47199e-05
2.25722e-05
2.07182e-05
1.91966e-05
1.79121e-05
1.66911e-05
1.53669e-05
1.39364e-05
1.27418e-05
1.16995e-05
8.0353e-06
1.18076e-06
-0.000278264
-9.47516e-05
2.01984e-05
4.50394e-05
5.54605e-05
5.8916e-05
5.90297e-05
5.73696e-05
5.4617e-05
5.13098e-05
4.78775e-05
4.45432e-05
4.13445e-05
3.8269e-05
3.5308e-05
3.24606e-05
2.97385e-05
2.71666e-05
2.47757e-05
2.2609e-05
2.07438e-05
1.92178e-05
1.79359e-05
1.67199e-05
1.53761e-05
1.39764e-05
1.28055e-05
1.17639e-05
8.07303e-06
1.20077e-06
-0.000277841
-9.38656e-05
2.06741e-05
4.527e-05
5.55555e-05
5.89857e-05
5.91018e-05
5.74392e-05
5.47043e-05
5.14152e-05
4.79973e-05
4.46739e-05
4.14873e-05
3.84269e-05
3.54766e-05
3.26272e-05
2.98892e-05
2.72939e-05
2.48801e-05
2.26946e-05
2.08113e-05
1.92659e-05
1.79585e-05
1.67276e-05
1.54046e-05
1.39889e-05
1.28148e-05
1.17627e-05
8.12015e-06
1.24473e-06
-0.000273296
-9.01735e-05
2.33904e-05
4.67568e-05
5.63954e-05
5.95337e-05
5.94871e-05
5.77289e-05
5.49346e-05
5.16223e-05
4.81943e-05
4.48673e-05
4.16848e-05
3.86362e-05
3.56979e-05
3.28472e-05
3.00912e-05
2.74707e-05
2.50322e-05
2.2823e-05
2.09153e-05
1.93396e-05
1.79976e-05
1.67341e-05
1.53898e-05
1.39763e-05
1.27955e-05
1.17466e-05
8.14961e-06
1.31748e-06
-0.000267807
-8.21203e-05
2.84619e-05
4.92064e-05
5.78091e-05
6.04702e-05
6.0164e-05
5.81929e-05
5.52858e-05
5.19165e-05
4.84605e-05
4.51171e-05
4.193e-05
3.88887e-05
3.5964e-05
3.31138e-05
3.0338e-05
2.76912e-05
2.52282e-05
2.29921e-05
2.10537e-05
1.94369e-05
1.80409e-05
1.6745e-05
1.53453e-05
1.39193e-05
1.269e-05
1.16426e-05
8.82015e-06
1.46123e-06
-0.000265739
-7.26712e-05
3.4958e-05
5.23945e-05
5.97023e-05
6.17232e-05
6.10389e-05
5.88206e-05
5.57045e-05
5.2263e-05
4.87858e-05
4.54111e-05
4.22057e-05
3.91707e-05
3.62652e-05
3.34184e-05
3.06216e-05
2.79441e-05
2.54599e-05
2.3205e-05
2.12225e-05
1.95337e-05
1.81064e-05
1.67513e-05
1.53163e-05
1.384e-05
1.25332e-05
1.17429e-05
9.99288e-06
1.08338e-06
-0.00027098
-6.64626e-05
4.14534e-05
5.60751e-05
6.19986e-05
6.32115e-05
6.20059e-05
5.94801e-05
5.61753e-05
5.26192e-05
4.91309e-05
4.57368e-05
4.25016e-05
3.94738e-05
3.65882e-05
3.37456e-05
3.0935e-05
2.82261e-05
2.57272e-05
2.3457e-05
2.14019e-05
1.96403e-05
1.81656e-05
1.67512e-05
1.53274e-05
1.38626e-05
1.25374e-05
1.18063e-05
1.0906e-05
-1.36492e-07
-0.000245354
-5.60106e-05
4.36038e-05
5.92399e-05
6.45664e-05
6.47849e-05
6.28624e-05
5.99921e-05
5.65817e-05
5.30271e-05
4.94718e-05
4.60586e-05
4.28184e-05
3.97948e-05
3.69138e-05
3.40744e-05
3.12667e-05
2.85451e-05
2.6029e-05
2.37226e-05
2.16433e-05
1.97807e-05
1.81611e-05
1.6656e-05
1.52645e-05
1.4026e-05
1.27653e-05
1.1312e-05
1.03754e-05
2.34324e-07
-0.000233042
-4.68903e-05
4.81421e-05
6.16634e-05
6.65719e-05
6.6133e-05
6.36621e-05
6.03149e-05
5.69248e-05
5.33009e-05
4.97301e-05
4.6321e-05
4.31308e-05
4.01189e-05
3.72339e-05
3.43987e-05
3.16048e-05
2.88915e-05
2.63298e-05
2.39695e-05
2.18165e-05
1.99836e-05
1.81533e-05
1.65313e-05
1.50978e-05
1.39168e-05
1.19313e-05
1.02343e-05
1.07512e-05
1.79926e-06
-0.000238648
-4.4767e-05
5.35355e-05
6.54625e-05
6.83393e-05
6.68273e-05
6.40315e-05
6.05646e-05
5.69129e-05
5.32866e-05
4.98324e-05
4.65376e-05
4.34307e-05
4.0434e-05
3.75447e-05
3.47156e-05
3.19438e-05
2.92554e-05
2.66601e-05
2.4178e-05
2.19155e-05
1.99057e-05
1.82289e-05
1.66299e-05
1.52081e-05
1.3183e-05
1.19702e-05
1.04502e-05
1.11844e-05
2.04495e-06
-0.000245954
-4.44176e-05
5.81203e-05
6.80484e-05
6.92944e-05
6.70868e-05
6.37803e-05
6.04001e-05
5.67997e-05
5.31529e-05
4.98614e-05
4.67585e-05
4.37029e-05
4.07167e-05
3.78394e-05
3.50161e-05
3.22716e-05
2.96086e-05
2.70289e-05
2.44791e-05
2.20372e-05
1.99453e-05
1.82979e-05
1.66156e-05
1.48344e-05
1.3655e-05
1.19147e-05
1.04324e-05
1.14632e-05
2.04487e-06
-0.000249637
-4.29345e-05
6.11684e-05
6.88272e-05
6.86978e-05
6.65665e-05
6.3006e-05
5.9707e-05
5.63213e-05
5.31671e-05
5.00361e-05
4.69209e-05
4.38899e-05
4.09424e-05
3.80963e-05
3.52936e-05
3.25613e-05
2.99009e-05
2.73445e-05
2.48701e-05
2.25235e-05
2.02188e-05
1.83026e-05
1.64173e-05
1.49644e-05
1.36573e-05
1.17869e-05
1.06859e-05
1.16918e-05
1.90683e-06
-0.000244626
-3.83976e-05
6.06391e-05
6.61243e-05
6.60806e-05
6.4927e-05
6.16932e-05
5.86563e-05
5.5831e-05
5.32005e-05
5.01792e-05
4.71265e-05
4.40828e-05
4.11491e-05
3.83212e-05
3.5537e-05
3.28251e-05
3.01932e-05
2.77043e-05
2.53151e-05
2.30011e-05
2.06898e-05
1.82738e-05
1.64372e-05
1.54543e-05
1.37967e-05
1.076e-05
1.08964e-05
1.22428e-05
2.07444e-06
-0.000240513
-3.86614e-05
5.19149e-05
5.88191e-05
6.21829e-05
6.1388e-05
6.028e-05
5.81358e-05
5.54094e-05
5.30308e-05
5.02755e-05
4.74022e-05
4.43146e-05
4.13362e-05
3.84981e-05
3.57161e-05
3.30437e-05
3.04876e-05
2.81296e-05
2.57748e-05
2.3356e-05
2.09205e-05
1.85414e-05
1.67157e-05
1.44268e-05
1.3721e-05
1.34338e-05
1.3578e-05
1.0677e-05
3.50063e-06
-0.000248331
-6.95513e-05
2.59676e-05
4.83896e-05
5.74561e-05
5.97904e-05
5.92303e-05
5.75657e-05
5.50027e-05
5.26118e-05
5.04547e-05
4.78102e-05
4.45483e-05
4.14702e-05
3.86061e-05
3.57815e-05
3.31736e-05
3.0743e-05
2.85941e-05
2.63291e-05
2.35402e-05
2.08206e-05
1.86955e-05
1.63229e-05
1.38703e-05
1.60502e-05
1.64047e-05
1.52639e-05
1.67965e-05
8.63691e-06
-0.000533777
-0.000218254
5.48522e-06
4.65748e-05
5.60221e-05
5.93844e-05
5.921e-05
5.75305e-05
5.42491e-05
5.15643e-05
5.10564e-05
4.87748e-05
4.45458e-05
4.15109e-05
3.86446e-05
3.56931e-05
3.31665e-05
3.08468e-05
2.89573e-05
2.77492e-05
2.31553e-05
2.01454e-05
1.88848e-05
1.7138e-05
1.14997e-05
1.8928e-05
2.14665e-05
2.40884e-05
3.42598e-05
3.13269e-05
-0.000376371
-0.000177884
-4.03827e-05
9.74353e-06
3.34504e-05
4.36829e-05
4.78187e-05
4.85109e-05
4.70687e-05
4.62499e-05
4.61359e-05
4.37152e-05
4.07925e-05
3.8045e-05
3.54289e-05
3.30792e-05
3.08232e-05
2.88308e-05
2.68953e-05
2.52333e-05
2.23571e-05
1.85977e-05
1.73809e-05
1.63175e-05
1.51599e-05
1.39595e-05
1.31297e-05
1.30018e-05
1.71263e-05
8.07817e-06
-6.13482e-05
-8.95786e-05
-4.01669e-05
1.18289e-05
3.48769e-05
4.45217e-05
4.8189e-05
4.87617e-05
4.78941e-05
4.69481e-05
4.55246e-05
4.33755e-05
4.08379e-05
3.81331e-05
3.551e-05
3.30997e-05
3.08747e-05
2.8852e-05
2.67574e-05
2.45119e-05
2.21775e-05
1.94323e-05
1.74584e-05
1.60811e-05
1.47935e-05
1.33405e-05
1.14145e-05
8.034e-06
4.17307e-06
1.04996e-05
1.18129e-05
1.04741e-06
9.15234e-06
2.88337e-05
4.13684e-05
4.75307e-05
4.97964e-05
4.98924e-05
4.91041e-05
4.74545e-05
4.54091e-05
4.33313e-05
4.07108e-05
3.81203e-05
3.55711e-05
3.31373e-05
3.08533e-05
2.86198e-05
2.65011e-05
2.42165e-05
2.18352e-05
1.98406e-05
1.77132e-05
1.58686e-05
1.42791e-05
1.24327e-05
9.92406e-06
6.41639e-06
3.03985e-06
5.76817e-06
0.000187426
8.96247e-05
4.46677e-05
4.73491e-05
5.06707e-05
5.24132e-05
5.26106e-05
5.17392e-05
5.03473e-05
4.80169e-05
4.57422e-05
4.33423e-05
4.06865e-05
3.81146e-05
3.55732e-05
3.31096e-05
3.07531e-05
2.84207e-05
2.61835e-05
2.40141e-05
2.16613e-05
1.98302e-05
1.78679e-05
1.58534e-05
1.40665e-05
1.20964e-05
9.70941e-06
7.01488e-06
4.05208e-06
5.07243e-06
0.000205599
0.00012298
6.84803e-05
6.22662e-05
5.99963e-05
5.79477e-05
5.61618e-05
5.3977e-05
5.14887e-05
4.88088e-05
4.61955e-05
4.34792e-05
4.07851e-05
3.81311e-05
3.5539e-05
3.30296e-05
3.06118e-05
2.82481e-05
2.59548e-05
2.37479e-05
2.16175e-05
1.96017e-05
1.78364e-05
1.60347e-05
1.41943e-05
1.21264e-05
1.01387e-05
6.45392e-06
4.46011e-06
5.50072e-06
0.000152113
0.000102967
7.65919e-05
7.16051e-05
6.54242e-05
6.2937e-05
5.95658e-05
5.60602e-05
5.27545e-05
4.96771e-05
4.66135e-05
4.37272e-05
4.09081e-05
3.81581e-05
3.54983e-05
3.29334e-05
3.04593e-05
2.80604e-05
2.57431e-05
2.35092e-05
2.14464e-05
1.95601e-05
1.76876e-05
1.61193e-05
1.46201e-05
1.15451e-05
9.0413e-06
8.05104e-06
4.91947e-06
4.34958e-06
0.000109387
7.44815e-05
6.98544e-05
7.40544e-05
7.0436e-05
6.50503e-05
6.15672e-05
5.80458e-05
5.4079e-05
5.03213e-05
4.70653e-05
4.39933e-05
4.10133e-05
3.81706e-05
3.54499e-05
3.28309e-05
3.02964e-05
2.7848e-05
2.55237e-05
2.33218e-05
2.12144e-05
1.94113e-05
1.7867e-05
1.62526e-05
1.35067e-05
1.18041e-05
1.0466e-05
8.25166e-06
4.44265e-06
3.8794e-06
7.1872e-05
5.06401e-05
6.15878e-05
7.18667e-05
7.10578e-05
6.74405e-05
6.29568e-05
5.87826e-05
5.50231e-05
5.11084e-05
4.74742e-05
4.41706e-05
4.10944e-05
3.81742e-05
3.53879e-05
3.2714e-05
3.01287e-05
2.76501e-05
2.52829e-05
2.30922e-05
2.11482e-05
1.93953e-05
1.77819e-05
1.57536e-05
1.43333e-05
1.23202e-05
1.03966e-05
8.21808e-06
4.5607e-06
3.91854e-06
5.52285e-05
4.02319e-05
5.51493e-05
6.81401e-05
6.97257e-05
6.71248e-05
6.37099e-05
5.96451e-05
5.54626e-05
5.15513e-05
4.78091e-05
4.42904e-05
4.11143e-05
3.81564e-05
3.53216e-05
3.2597e-05
2.99724e-05
2.74465e-05
2.50415e-05
2.29248e-05
2.10679e-05
1.92906e-05
1.7814e-05
1.63596e-05
1.44135e-05
1.24139e-05
1.05558e-05
8.22158e-06
4.86242e-06
4.31001e-06
7.15804e-05
3.93442e-05
4.79719e-05
6.35258e-05
6.75846e-05
6.64884e-05
6.34931e-05
5.97645e-05
5.57254e-05
5.17372e-05
4.79436e-05
4.43811e-05
4.11172e-05
3.81028e-05
3.52518e-05
3.24911e-05
2.98219e-05
2.72537e-05
2.48881e-05
2.27789e-05
2.09227e-05
1.9276e-05
1.78691e-05
1.64419e-05
1.48454e-05
1.29872e-05
1.06401e-05
7.82913e-06
4.6668e-06
4.86283e-06
5.79154e-05
3.03309e-05
4.17754e-05
5.97703e-05
6.52849e-05
6.50573e-05
6.27928e-05
5.95247e-05
5.56925e-05
5.17448e-05
4.79707e-05
4.44458e-05
4.11238e-05
3.80387e-05
3.51617e-05
3.23784e-05
2.96708e-05
2.71084e-05
2.47936e-05
2.26743e-05
2.07922e-05
1.92079e-05
1.78776e-05
1.65254e-05
1.49657e-05
1.32442e-05
1.10492e-05
7.51624e-06
3.59571e-06
4.97776e-06
2.77087e-05
1.42837e-05
3.58838e-05
5.61162e-05
6.28242e-05
6.35599e-05
6.19354e-05
5.90924e-05
5.54937e-05
5.16354e-05
4.79444e-05
4.44332e-05
4.11196e-05
3.8006e-05
3.50779e-05
3.22703e-05
2.95588e-05
2.7018e-05
2.4689e-05
2.25808e-05
2.06961e-05
1.91374e-05
1.78754e-05
1.65958e-05
1.508e-05
1.33704e-05
1.12202e-05
7.93633e-06
3.15553e-06
3.89094e-06
-7.62715e-06
-2.72511e-06
3.03724e-05
5.25216e-05
6.05577e-05
6.21193e-05
6.10573e-05
5.85918e-05
5.52202e-05
5.1537e-05
4.7873e-05
4.43922e-05
4.11034e-05
3.7985e-05
3.50313e-05
3.2203e-05
2.94922e-05
2.69474e-05
2.46048e-05
2.24804e-05
2.06469e-05
1.91295e-05
1.78711e-05
1.66313e-05
1.51336e-05
1.33789e-05
1.09397e-05
7.45406e-06
4.72734e-06
3.73059e-06
-2.12388e-05
-1.2698e-05
2.5148e-05
4.9357e-05
5.85698e-05
6.08431e-05
6.02848e-05
5.81361e-05
5.50044e-05
5.14273e-05
4.7802e-05
4.43705e-05
4.1102e-05
3.79931e-05
3.50285e-05
3.21873e-05
2.94722e-05
2.69168e-05
2.45589e-05
2.24254e-05
2.05941e-05
1.91557e-05
1.78886e-05
1.66566e-05
1.51574e-05
1.34039e-05
1.09759e-05
7.63278e-06
5.06656e-06
3.66555e-06
-2.38859e-05
-1.65059e-05
2.16899e-05
4.7052e-05
5.70906e-05
5.99148e-05
5.97389e-05
5.78357e-05
5.48467e-05
5.1348e-05
4.777e-05
4.43828e-05
4.1146e-05
3.80473e-05
3.50794e-05
3.22307e-05
2.95082e-05
2.69415e-05
2.45664e-05
2.24094e-05
2.05764e-05
1.91624e-05
1.79203e-05
1.66904e-05
1.51787e-05
1.34518e-05
1.10754e-05
7.77006e-06
5.1573e-06
3.61271e-06
-2.53609e-05
-1.80032e-05
2.02669e-05
4.59785e-05
5.6365e-05
5.94638e-05
5.94827e-05
5.77079e-05
5.48005e-05
5.13528e-05
4.78075e-05
4.44487e-05
4.12375e-05
3.81541e-05
3.51919e-05
3.23392e-05
2.96043e-05
2.70191e-05
2.46219e-05
2.24431e-05
2.06019e-05
1.91876e-05
1.79469e-05
1.67114e-05
1.51999e-05
1.34901e-05
1.11399e-05
7.84147e-06
5.20521e-06
3.60522e-06
-2.48322e-05
-1.77915e-05
2.05979e-05
4.61834e-05
5.6468e-05
5.95402e-05
5.95527e-05
5.77809e-05
5.48874e-05
5.14589e-05
4.79343e-05
4.45832e-05
4.13792e-05
3.83151e-05
3.53675e-05
3.25135e-05
2.97597e-05
2.71464e-05
2.47252e-05
2.25353e-05
2.06724e-05
1.92319e-05
1.79648e-05
1.6721e-05
1.52119e-05
1.35011e-05
1.11533e-05
7.85772e-06
5.22617e-06
3.62499e-06
-2.23947e-05
-1.41589e-05
2.30717e-05
4.75078e-05
5.72763e-05
6.01056e-05
5.99486e-05
5.80674e-05
5.51065e-05
5.1665e-05
4.81373e-05
4.47777e-05
4.15812e-05
3.85326e-05
3.56027e-05
3.27491e-05
2.99723e-05
2.73288e-05
2.48787e-05
2.26667e-05
2.07838e-05
1.92909e-05
1.79876e-05
1.67196e-05
1.5204e-05
1.34798e-05
1.11402e-05
7.81353e-06
5.2167e-06
3.69157e-06
-1.41844e-07
-3.18712e-06
2.6356e-05
4.95385e-05
5.86081e-05
6.10567e-05
6.0621e-05
5.85673e-05
5.54532e-05
5.19257e-05
4.84169e-05
4.50339e-05
4.18366e-05
3.87975e-05
3.5887e-05
3.30366e-05
3.02333e-05
2.75599e-05
2.5083e-05
2.28465e-05
2.0919e-05
1.93245e-05
1.80456e-05
1.67305e-05
1.51626e-05
1.34252e-05
1.11746e-05
7.72081e-06
5.03025e-06
3.94933e-06
3.17855e-05
1.06987e-05
2.99419e-05
5.22354e-05
6.04212e-05
6.22784e-05
6.14738e-05
5.91631e-05
5.59121e-05
5.22969e-05
4.87273e-05
4.53358e-05
4.21163e-05
3.90903e-05
3.62122e-05
3.33681e-05
3.05345e-05
2.78191e-05
2.53232e-05
2.30546e-05
2.10573e-05
1.94389e-05
1.81104e-05
1.67329e-05
1.51212e-05
1.33559e-05
1.11515e-05
7.60682e-06
4.75268e-06
4.33925e-06
4.15238e-05
2.0342e-05
3.59175e-05
5.52739e-05
6.24669e-05
6.37082e-05
6.2393e-05
5.9806e-05
5.63806e-05
5.27044e-05
4.90929e-05
4.5634e-05
4.24086e-05
3.94134e-05
3.65632e-05
3.37184e-05
3.08778e-05
2.8109e-05
2.55704e-05
2.3269e-05
2.12665e-05
1.95707e-05
1.8162e-05
1.67215e-05
1.51141e-05
1.332e-05
1.08607e-05
7.59594e-06
4.59959e-06
4.48674e-06
5.67937e-05
3.05496e-05
4.1476e-05
5.90185e-05
6.4572e-05
6.501e-05
6.32501e-05
6.03162e-05
5.6772e-05
5.31132e-05
4.94674e-05
4.59236e-05
4.27343e-05
3.9775e-05
3.68951e-05
3.40505e-05
3.12311e-05
2.84728e-05
2.5824e-05
2.35263e-05
2.15409e-05
1.97098e-05
1.81482e-05
1.6609e-05
1.50179e-05
1.29642e-05
1.07348e-05
8.06682e-06
4.5013e-06
4.06681e-06
6.90341e-05
3.93496e-05
4.70724e-05
6.2606e-05
6.68515e-05
6.62473e-05
6.39703e-05
6.05668e-05
5.70527e-05
5.33839e-05
4.97122e-05
4.62385e-05
4.3076e-05
4.00926e-05
3.72153e-05
3.4381e-05
3.15672e-05
2.88229e-05
2.61814e-05
2.38046e-05
2.17341e-05
1.99012e-05
1.80404e-05
1.64374e-05
1.4801e-05
1.28675e-05
1.07873e-05
8.10162e-06
4.37781e-06
3.78421e-06
7.16217e-05
4.46631e-05
5.26646e-05
6.60304e-05
6.86522e-05
6.7295e-05
6.43668e-05
6.07424e-05
5.70496e-05
5.3332e-05
4.9799e-05
4.65132e-05
4.33677e-05
4.0394e-05
3.75304e-05
3.47098e-05
3.19061e-05
2.91676e-05
2.65594e-05
2.4095e-05
2.1812e-05
1.9882e-05
1.81114e-05
1.64757e-05
1.49226e-05
1.29846e-05
1.06395e-05
8.05261e-06
4.24736e-06
3.71223e-06
7.14476e-05
4.97424e-05
5.80027e-05
6.86229e-05
6.97278e-05
6.73719e-05
6.41502e-05
6.03893e-05
5.6894e-05
5.33294e-05
4.99301e-05
4.67059e-05
4.36134e-05
4.06745e-05
3.78242e-05
3.50133e-05
3.22335e-05
2.95066e-05
2.68902e-05
2.44044e-05
2.20863e-05
2.00162e-05
1.81291e-05
1.64496e-05
1.48456e-05
1.30208e-05
1.08008e-05
7.95058e-06
4.18078e-06
3.71086e-06
7.29342e-05
5.522e-05
6.19856e-05
6.93281e-05
6.92283e-05
6.67172e-05
6.30971e-05
5.97531e-05
5.65241e-05
5.33971e-05
5.00511e-05
4.68579e-05
4.38377e-05
4.09266e-05
3.80897e-05
3.52916e-05
3.25388e-05
2.98383e-05
2.72276e-05
2.47373e-05
2.25299e-05
2.0338e-05
1.81879e-05
1.63207e-05
1.46294e-05
1.31168e-05
1.08621e-05
7.94517e-06
4.24019e-06
3.79483e-06
9.1837e-05
6.42912e-05
6.16453e-05
6.65075e-05
6.65148e-05
6.47202e-05
6.15364e-05
5.89773e-05
5.6336e-05
5.32058e-05
5.01702e-05
4.70433e-05
4.40133e-05
4.11439e-05
3.8326e-05
3.55407e-05
3.28172e-05
3.01304e-05
2.7561e-05
2.51923e-05
2.28569e-05
2.0715e-05
1.85893e-05
1.63164e-05
1.48014e-05
1.3324e-05
1.00591e-05
7.91885e-06
4.9877e-06
4.04397e-06
0.00011313
6.9561e-05
5.30541e-05
5.89976e-05
6.18678e-05
6.18692e-05
6.01209e-05
5.8233e-05
5.60219e-05
5.31035e-05
5.00993e-05
4.72816e-05
4.42297e-05
4.13473e-05
3.85108e-05
3.57267e-05
3.30531e-05
3.04273e-05
2.79619e-05
2.55371e-05
2.30849e-05
2.11069e-05
1.87688e-05
1.62977e-05
1.43588e-05
1.41665e-05
1.19983e-05
9.18797e-06
3.95333e-06
4.67388e-06
0.000140514
5.3341e-05
2.75903e-05
4.79905e-05
5.76109e-05
5.98477e-05
5.90848e-05
5.75765e-05
5.54547e-05
5.30388e-05
5.02089e-05
4.74743e-05
4.4505e-05
4.15028e-05
3.86121e-05
3.58115e-05
3.32027e-05
3.07123e-05
2.83638e-05
2.58068e-05
2.34633e-05
2.11525e-05
1.86899e-05
1.62101e-05
1.45663e-05
1.51264e-05
1.42119e-05
1.10841e-05
6.86162e-06
7.84142e-06
2.4008e-05
-5.84883e-05
6.73933e-07
4.40151e-05
5.64056e-05
5.93153e-05
5.89088e-05
5.73153e-05
5.48932e-05
5.2331e-05
5.07643e-05
4.79282e-05
4.47322e-05
4.15439e-05
3.85963e-05
3.58042e-05
3.32029e-05
3.09082e-05
2.86914e-05
2.65932e-05
2.35184e-05
2.06057e-05
1.87694e-05
1.64236e-05
1.42749e-05
1.66074e-05
1.83274e-05
1.75721e-05
1.1789e-05
1.98117e-05
-0.000333129
-0.000133048
-1.31499e-05
1.92852e-05
3.68244e-05
4.51308e-05
4.83536e-05
4.88792e-05
4.81189e-05
4.68852e-05
4.53811e-05
4.33879e-05
4.07183e-05
3.80485e-05
3.54291e-05
3.30194e-05
3.07973e-05
2.87125e-05
2.66852e-05
2.4515e-05
2.19332e-05
1.95207e-05
1.74385e-05
1.58291e-05
1.43563e-05
1.28186e-05
1.1047e-05
1.00775e-05
1.16506e-05
2.11722e-06
-2.8796e-05
-4.23151e-05
-1.15058e-05
2.10578e-05
3.80423e-05
4.5888e-05
4.88192e-05
4.92377e-05
4.85445e-05
4.73259e-05
4.52903e-05
4.30161e-05
4.08186e-05
3.81074e-05
3.54587e-05
3.30413e-05
3.07997e-05
2.87959e-05
2.64756e-05
2.40279e-05
2.20125e-05
1.9749e-05
1.74914e-05
1.56713e-05
1.41498e-05
1.2271e-05
9.77716e-06
6.39459e-06
2.71581e-06
5.88161e-06
9.19221e-05
6.19676e-05
3.34985e-05
3.61834e-05
4.41327e-05
4.88053e-05
5.04466e-05
5.04067e-05
4.93722e-05
4.76991e-05
4.54719e-05
4.30478e-05
4.07013e-05
3.80857e-05
3.55029e-05
3.3069e-05
3.07575e-05
2.85888e-05
2.62214e-05
2.38695e-05
2.18523e-05
1.97191e-05
1.76182e-05
1.5558e-05
1.37481e-05
1.16044e-05
8.63867e-06
5.07275e-06
3.5094e-06
3.67001e-06
0.000238816
0.000145635
6.96128e-05
5.47464e-05
5.35972e-05
5.37716e-05
5.32814e-05
5.21968e-05
5.0554e-05
4.83283e-05
4.57942e-05
4.30025e-05
4.05599e-05
3.8162e-05
3.55556e-05
3.30704e-05
3.07431e-05
2.8377e-05
2.57872e-05
2.36397e-05
2.16956e-05
1.97083e-05
1.76662e-05
1.55473e-05
1.36023e-05
1.14678e-05
8.57929e-06
5.61232e-06
3.92333e-06
2.56047e-06
0.000227955
0.000166139
9.37228e-05
7.01827e-05
6.2994e-05
5.94369e-05
5.68954e-05
5.43784e-05
5.18567e-05
4.90558e-05
4.6019e-05
4.3239e-05
4.06945e-05
3.81437e-05
3.55236e-05
3.30024e-05
3.05857e-05
2.81763e-05
2.56912e-05
2.33243e-05
2.14132e-05
1.96006e-05
1.76366e-05
1.57193e-05
1.38047e-05
1.15334e-05
8.67767e-06
5.61458e-06
4.00332e-06
2.81975e-06
0.000181493
0.0001469
0.000101136
7.90274e-05
6.91705e-05
6.48273e-05
6.05674e-05
5.65957e-05
5.31058e-05
4.96874e-05
4.64549e-05
4.35787e-05
4.08052e-05
3.81314e-05
3.54794e-05
3.29096e-05
3.04116e-05
2.79494e-05
2.55125e-05
2.31959e-05
2.11175e-05
1.9364e-05
1.75837e-05
1.59914e-05
1.454e-05
1.15085e-05
7.50829e-06
6.03017e-06
4.81592e-06
2.58345e-06
0.000141314
0.000121143
9.62209e-05
8.33188e-05
7.43596e-05
6.69047e-05
6.26138e-05
5.85916e-05
5.40993e-05
5.03217e-05
4.70296e-05
4.38733e-05
4.08907e-05
3.80767e-05
3.5426e-05
3.28105e-05
3.02269e-05
2.7665e-05
2.52796e-05
2.30761e-05
2.1045e-05
1.90605e-05
1.75644e-05
1.62247e-05
1.34043e-05
1.14893e-05
9.56484e-06
6.87899e-06
4.13379e-06
2.26378e-06
0.000104795
0.000102193
9.11953e-05
8.19019e-05
7.50734e-05
6.92849e-05
6.39687e-05
5.92022e-05
5.52354e-05
5.10361e-05
4.73599e-05
4.40566e-05
4.09297e-05
3.80499e-05
3.53529e-05
3.2685e-05
3.00411e-05
2.74322e-05
2.50045e-05
2.28482e-05
2.08914e-05
1.91976e-05
1.75627e-05
1.55714e-05
1.41976e-05
1.20049e-05
9.60735e-06
6.80468e-06
4.32581e-06
2.33158e-06
0.000116734
0.000104407
8.63965e-05
7.83549e-05
7.37553e-05
6.89489e-05
6.45394e-05
6.00977e-05
5.58178e-05
5.1592e-05
4.76714e-05
4.40419e-05
4.09067e-05
3.80515e-05
3.52732e-05
3.25476e-05
2.98765e-05
2.72334e-05
2.46856e-05
2.25551e-05
2.08065e-05
1.9158e-05
1.76927e-05
1.60223e-05
1.41483e-05
1.20612e-05
9.90802e-06
6.85493e-06
4.52941e-06
2.47545e-06
0.000144649
0.000110668
8.06031e-05
7.41851e-05
7.15299e-05
6.76881e-05
6.41921e-05
6.05384e-05
5.61669e-05
5.18605e-05
4.78552e-05
4.40806e-05
4.08444e-05
3.79974e-05
3.51889e-05
3.24112e-05
2.97233e-05
2.69797e-05
2.44239e-05
2.2377e-05
2.06584e-05
1.9163e-05
1.79132e-05
1.63188e-05
1.41522e-05
1.21873e-05
1.0167e-05
6.81783e-06
4.56178e-06
2.72213e-06
0.000121539
0.000101382
7.60354e-05
7.03118e-05
6.88058e-05
6.62754e-05
6.38891e-05
6.0395e-05
5.61523e-05
5.18381e-05
4.78951e-05
4.41577e-05
4.08322e-05
3.78481e-05
3.50607e-05
3.22763e-05
2.94917e-05
2.67962e-05
2.4326e-05
2.22802e-05
2.05212e-05
1.90192e-05
1.79e-05
1.66585e-05
1.45953e-05
1.22633e-05
9.9996e-06
6.76443e-06
4.68978e-06
2.7953e-06
0.000110188
8.99677e-05
6.85945e-05
6.56475e-05
6.65327e-05
6.52812e-05
6.31836e-05
6.00049e-05
5.59922e-05
5.17524e-05
4.77424e-05
4.41555e-05
4.08909e-05
3.77727e-05
3.48789e-05
3.20883e-05
2.9287e-05
2.6712e-05
2.43422e-05
2.20845e-05
2.0365e-05
1.89745e-05
1.78908e-05
1.67713e-05
1.50032e-05
1.28971e-05
9.71621e-06
6.65785e-06
4.84637e-06
2.50317e-06
9.25791e-05
7.78321e-05
6.17166e-05
6.21699e-05
6.46564e-05
6.38591e-05
6.2367e-05
5.96177e-05
5.57811e-05
5.15618e-05
4.76736e-05
4.41717e-05
4.08435e-05
3.77004e-05
3.47764e-05
3.19477e-05
2.91821e-05
2.65805e-05
2.42489e-05
2.21032e-05
2.02148e-05
1.89503e-05
1.79906e-05
1.6869e-05
1.51012e-05
1.29569e-05
1.00496e-05
6.52198e-06
4.98092e-06
2.55343e-06
8.29524e-05
7.06178e-05
5.7231e-05
5.946e-05
6.27413e-05
6.25475e-05
6.16242e-05
5.92692e-05
5.5536e-05
5.1419e-05
4.7672e-05
4.41632e-05
4.08017e-05
3.76827e-05
3.47283e-05
3.18772e-05
2.91258e-05
2.65261e-05
2.416e-05
2.20903e-05
2.02452e-05
1.89001e-05
1.80727e-05
1.69604e-05
1.51145e-05
1.30135e-05
1.04007e-05
6.48577e-06
4.94534e-06
2.54102e-06
8.46614e-05
6.89856e-05
5.42787e-05
5.73265e-05
6.12731e-05
6.16583e-05
6.11476e-05
5.90009e-05
5.53965e-05
5.13557e-05
4.76174e-05
4.41725e-05
4.08566e-05
3.77256e-05
3.47524e-05
3.189e-05
2.91398e-05
2.65455e-05
2.41867e-05
2.20339e-05
2.02326e-05
1.89324e-05
1.81313e-05
1.7015e-05
1.51308e-05
1.30846e-05
1.05697e-05
6.56877e-06
4.94598e-06
2.5152e-06
8.49709e-05
6.82027e-05
5.29442e-05
5.62916e-05
6.05682e-05
6.1236e-05
6.09235e-05
5.88901e-05
5.53622e-05
5.13742e-05
4.76478e-05
4.42305e-05
4.09552e-05
3.78331e-05
3.48626e-05
3.19953e-05
2.92335e-05
2.66247e-05
2.42446e-05
2.2049e-05
2.02614e-05
1.89697e-05
1.81626e-05
1.7039e-05
1.51504e-05
1.31283e-05
1.06419e-05
6.63414e-06
4.96885e-06
2.50846e-06
8.10061e-05
6.68602e-05
5.3113e-05
5.64457e-05
6.0714e-05
6.1329e-05
6.09784e-05
5.89686e-05
5.54501e-05
5.14665e-05
4.78004e-05
4.4385e-05
4.1083e-05
3.80013e-05
3.50587e-05
3.21926e-05
2.94031e-05
2.67482e-05
2.43339e-05
2.21832e-05
2.03262e-05
1.89935e-05
1.81727e-05
1.70396e-05
1.51562e-05
1.31144e-05
1.06433e-05
6.68109e-06
5.00591e-06
2.51802e-06
7.99835e-05
6.78095e-05
5.46945e-05
5.75021e-05
6.15401e-05
6.19316e-05
6.1364e-05
5.92233e-05
5.56876e-05
5.16801e-05
4.80054e-05
4.45598e-05
4.13028e-05
3.82422e-05
3.53354e-05
3.24749e-05
2.9648e-05
2.69485e-05
2.44799e-05
2.23206e-05
2.04109e-05
1.90658e-05
1.81667e-05
1.70067e-05
1.51487e-05
1.30385e-05
1.05205e-05
6.77988e-06
5.07439e-06
2.52272e-06
9.10066e-05
7.40741e-05
5.77495e-05
5.90206e-05
6.27611e-05
6.3031e-05
6.20542e-05
5.96023e-05
5.60355e-05
5.20518e-05
4.81998e-05
4.48081e-05
4.15974e-05
3.85487e-05
3.56712e-05
3.28263e-05
2.99491e-05
2.7211e-05
2.47443e-05
2.24011e-05
2.05065e-05
1.92e-05
1.81555e-05
1.69421e-05
1.51042e-05
1.2928e-05
1.01999e-05
6.99326e-06
5.19982e-06
2.51071e-06
9.6665e-05
7.96494e-05
6.27987e-05
6.23085e-05
6.41701e-05
6.40824e-05
6.28994e-05
6.01185e-05
5.64281e-05
5.24644e-05
4.86325e-05
4.50405e-05
4.1891e-05
3.88778e-05
3.60679e-05
3.32393e-05
3.02919e-05
2.75283e-05
2.4924e-05
2.25647e-05
2.07688e-05
1.9284e-05
1.81909e-05
1.69082e-05
1.49577e-05
1.25672e-05
1.00973e-05
7.10405e-06
5.10251e-06
2.62248e-06
8.84829e-05
8.14935e-05
6.85381e-05
6.6506e-05
6.67713e-05
6.5164e-05
6.34377e-05
6.07429e-05
5.69074e-05
5.28893e-05
4.90774e-05
4.53669e-05
4.20883e-05
3.92866e-05
3.64993e-05
3.36291e-05
3.07656e-05
2.7789e-05
2.50618e-05
2.28683e-05
2.10206e-05
1.94383e-05
1.82652e-05
1.67418e-05
1.45157e-05
1.24728e-05
1.03054e-05
7.10556e-06
4.73575e-06
2.66457e-06
9.20265e-05
8.47426e-05
7.32371e-05
7.03478e-05
6.93348e-05
6.67973e-05
6.41505e-05
6.11084e-05
5.73078e-05
5.33055e-05
4.94293e-05
4.56443e-05