# Force       
# CofR        : (0.000000e+00 0.000000e+00 0.000000e+00)
#
# Time        	total_x total_y total_z	pressure_x pressure_y pressure_z	viscous_x viscous_y viscous_z
0.0001         4.854488e-05 3.805495e-08 -1.681278e-07 3.068150e-05 1.617936e-08 -1.635204e-07 1.786338e-05 2.187559e-08 -4.607378e-09
0.0002         6.002558e-05 -1.232173e-07 -2.112602e-07 4.680106e-05 -1.149337e-07 -1.928610e-07 1.322452e-05 -8.283554e-09 -1.839918e-08
0.0003         5.997004e-05 -2.251765e-07 -1.834211e-07 4.974749e-05 -2.159553e-07 -1.825742e-07 1.022255e-05 -9.221243e-09 -8.468472e-10
0.0004         5.670814e-05 -2.675334e-07 -1.158042e-07 4.826827e-05 -2.492465e-07 -1.124863e-07 8.439868e-06 -1.828698e-08 -3.317910e-09
0.0005         5.362689e-05 -2.487671e-07 -2.889087e-08 4.632485e-05 -2.236039e-07 -1.967380e-08 7.302048e-06 -2.516319e-08 -9.217072e-09
0.0006         5.150544e-05 -1.835051e-07 7.146239e-08 4.484189e-05 -1.593571e-07 8.327278e-08 6.663548e-06 -2.414798e-08 -1.181039e-08
0.0007         5.049903e-05 -9.134573e-08 1.789461e-07 4.403054e-05 -7.329577e-08 1.876956e-07 6.468485e-06 -1.804996e-08 -8.749483e-09
0.0008         5.000829e-05 1.652561e-08 3.008025e-07 4.358840e-05 2.479843e-08 3.041634e-07 6.419889e-06 -8.272817e-09 -3.360902e-09
0.0009         4.984585e-05 1.290740e-07 4.481729e-07 4.337101e-05 1.276039e-07 4.411240e-07 6.474841e-06 1.470123e-09 7.048853e-09
0.001          4.992434e-05 2.320978e-07 6.017261e-07 4.326254e-05 2.219491e-07 5.832323e-07 6.661800e-06 1.014877e-08 1.849381e-08
0.0011         4.990983e-05 3.105612e-07 7.476994e-07 4.298994e-05 2.948640e-07 7.197986e-07 6.919886e-06 1.569718e-08 2.790077e-08
0.0012         4.957090e-05 3.735114e-07 8.912418e-07 4.237730e-05 3.535001e-07 8.547316e-07 7.193601e-06 2.001135e-08 3.651011e-08
0.0013         4.912030e-05 4.173065e-07 1.032486e-06 4.162688e-05 3.946729e-07 9.868943e-07 7.493426e-06 2.263362e-08 4.559164e-08
0.0014         4.831280e-05 4.484243e-07 1.174070e-06 4.057870e-05 4.231678e-07 1.118871e-06 7.734105e-06 2.525647e-08 5.519836e-08
0.0015         4.727309e-05 4.703138e-07 1.327450e-06 3.935600e-05 4.441250e-07 1.262051e-06 7.917094e-06 2.618880e-08 6.539881e-08
0.0016         4.617333e-05 4.898955e-07 1.491518e-06 3.811988e-05 4.627417e-07 1.416885e-06 8.053444e-06 2.715386e-08 7.463268e-08
0.0017         4.510917e-05 5.076788e-07 1.673494e-06 3.698312e-05 4.798992e-07 1.587075e-06 8.126045e-06 2.777957e-08 8.641855e-08
0.0018         4.416725e-05 5.276279e-07 1.876264e-06 3.603918e-05 4.980335e-07 1.775398e-06 8.128071e-06 2.959437e-08 1.008655e-07
0.0019         4.340413e-05 5.470924e-07 2.106594e-06 3.533619e-05 5.160495e-07 1.987114e-06 8.067933e-06 3.104297e-08 1.194804e-07
0.002          4.286976e-05 5.714918e-07 2.363805e-06 3.489108e-05 5.376505e-07 2.224941e-06 7.978681e-06 3.384133e-08 1.388635e-07
0.0021         4.257689e-05 5.961523e-07 2.649612e-06 3.469098e-05 5.615313e-07 2.494868e-06 7.885905e-06 3.462102e-08 1.547442e-07
0.0022         4.247354e-05 6.289822e-07 2.971731e-06 3.467493e-05 5.926152e-07 2.801471e-06 7.798615e-06 3.636702e-08 1.702599e-07
0.0023         4.249855e-05 6.691463e-07 3.343138e-06 3.477265e-05 6.312304e-07 3.153017e-06 7.725895e-06 3.791585e-08 1.901216e-07
0.0024         4.258775e-05 7.209500e-07 3.773171e-06 3.492245e-05 6.796150e-07 3.557911e-06 7.665292e-06 4.133506e-08 2.152602e-07
0.0025         4.270671e-05 7.826160e-07 4.273163e-06 3.508689e-05 7.376269e-07 4.026557e-06 7.619821e-06 4.498911e-08 2.466061e-07
0.0026         4.283486e-05 8.582704e-07 4.849841e-06 3.524959e-05 8.081583e-07 4.567954e-06 7.585274e-06 5.011215e-08 2.818866e-07
0.0027         4.297810e-05 9.462012e-07 5.516772e-06 3.541323e-05 8.912826e-07 5.193490e-06 7.564870e-06 5.491866e-08 3.232828e-07
0.0028         4.313818e-05 1.052692e-06 6.280329e-06 3.558460e-05 9.911720e-07 5.910449e-06 7.553581e-06 6.152039e-08 3.698797e-07
0.0029         4.333618e-05 1.175661e-06 7.148686e-06 3.578035e-05 1.107389e-06 6.724258e-06 7.555834e-06 6.827173e-08 4.244274e-07
0.003          4.357948e-05 1.319011e-06 8.116388e-06 3.601127e-05 1.241821e-06 7.630647e-06 7.568210e-06 7.719066e-08 4.857410e-07
0.0031         4.388833e-05 1.475485e-06 9.171899e-06 3.629251e-05 1.389157e-06 8.616650e-06 7.595818e-06 8.632854e-08 5.552492e-07
0.0032         4.426358e-05 1.645023e-06 1.028544e-05 3.662863e-05 1.547641e-06 9.655222e-06 7.634949e-06 9.738187e-08 6.302221e-07
0.0033         4.471577e-05 1.816528e-06 1.142038e-05 3.702616e-05 1.708230e-06 1.070971e-05 7.689603e-06 1.082988e-07 7.106769e-07
0.0034         4.522867e-05 1.986490e-06 1.251466e-05 3.747498e-05 1.865657e-06 1.172216e-05 7.753682e-06 1.208330e-07 7.924978e-07
0.0035         4.579354e-05 2.139292e-06 1.350334e-05 3.796463e-05 2.006836e-06 1.262790e-05 7.828905e-06 1.324555e-07 8.754363e-07
0.0036         4.637216e-05 2.271505e-06 1.429974e-05 3.846567e-05 2.124972e-06 1.334452e-05 7.906493e-06 1.465331e-07 9.552221e-07
0.0037         4.700654e-05 2.365492e-06 1.482591e-05 3.900094e-05 2.206245e-06 1.379590e-05 8.005609e-06 1.592468e-07 1.030007e-06
0.0038         4.753062e-05 2.409300e-06 1.496566e-05 3.944872e-05 2.237379e-06 1.387400e-05 8.081901e-06 1.719209e-07 1.091660e-06
0.0039         4.791365e-05 2.379650e-06 1.462678e-05 3.977463e-05 2.199375e-06 1.349582e-05 8.139023e-06 1.802751e-07 1.130959e-06
0.004          4.812912e-05 2.265973e-06 1.373563e-05 3.995623e-05 2.081580e-06 1.260351e-05 8.172884e-06 1.843933e-07 1.132117e-06
0.0041         4.819074e-05 2.050868e-06 1.226958e-05 4.000050e-05 1.870806e-06 1.117429e-05 8.190239e-06 1.800613e-07 1.095289e-06
0.0042         4.809885e-05 1.741745e-06 1.023759e-05 3.990690e-05 1.572619e-06 9.230584e-06 8.191950e-06 1.691257e-07 1.007002e-06
0.0043         4.790578e-05 1.346428e-06 7.745221e-06 3.972609e-05 1.198606e-06 6.873392e-06 8.179692e-06 1.478222e-07 8.718291e-07
0.0044         4.768643e-05 8.929486e-07 4.952565e-06 3.953769e-05 7.731887e-07 4.254872e-06 8.148748e-06 1.197599e-07 6.976926e-07
0.0045         4.752224e-05 4.168815e-07 2.079574e-06 3.941178e-05 3.313544e-07 1.577516e-06 8.110457e-06 8.552706e-08 5.020576e-07
0.0046         4.739514e-05 -2.823753e-08 -6.259695e-07 3.934141e-05 -7.761906e-08 -9.219017e-07 8.053729e-06 4.938152e-08 2.959322e-07
0.0047         4.726596e-05 -3.987436e-07 -2.896426e-06 3.928843e-05 -4.132354e-07 -2.994761e-06 7.977528e-06 1.449181e-08 9.833497e-08
0.0048         4.710915e-05 -6.575201e-07 -4.529937e-06 3.921224e-05 -6.427458e-07 -4.447775e-06 7.896915e-06 -1.477433e-08 -8.216205e-08
0.0049         4.697170e-05 -7.890479e-07 -5.407075e-06 3.912593e-05 -7.498023e-07 -5.174355e-06 7.845769e-06 -3.924566e-08 -2.327203e-07
0.005          4.689122e-05 -7.889192e-07 -5.543397e-06 3.905377e-05 -7.342485e-07 -5.203322e-06 7.837450e-06 -5.467063e-08 -3.400747e-07
0.0051         4.684908e-05 -6.696131e-07 -4.983760e-06 3.899424e-05 -6.110367e-07 -4.603096e-06 7.854842e-06 -5.857647e-08 -3.806643e-07
0.0052         4.681749e-05 -4.401758e-07 -3.834462e-06 3.893965e-05 -3.936558e-07 -3.489012e-06 7.877842e-06 -4.651993e-08 -3.454505e-07
0.0053         4.677596e-05 -1.492737e-07 -2.309592e-06 3.887378e-05 -1.251604e-07 -2.067541e-06 7.902180e-06 -2.411323e-08 -2.420512e-07
0.0054         4.664788e-05 1.529588e-07 -7.003356e-07 3.873379e-05 1.505871e-07 -5.823064e-07 7.914087e-06 2.371714e-09 -1.180292e-07
0.0055         4.641896e-05 4.099506e-07 7.472834e-07 3.850342e-05 3.856838e-07 7.316129e-07 7.915541e-06 2.426678e-08 1.567048e-08
0.0056         4.610738e-05 6.036671e-07 1.830195e-06 3.820261e-05 5.603419e-07 1.704601e-06 7.904771e-06 4.332526e-08 1.255944e-07
0.0057         4.576237e-05 7.204187e-07 2.498772e-06 3.787289e-05 6.642343e-07 2.295026e-06 7.889474e-06 5.618436e-08 2.037453e-07
0.0058         4.541249e-05 7.723557e-07 2.787622e-06 3.754451e-05 7.083500e-07 2.541706e-06 7.867981e-06 6.400575e-08 2.459159e-07
0.0059         4.508855e-05 7.719839e-07 2.798064e-06 3.724316e-05 7.069270e-07 2.539640e-06 7.845388e-06 6.505692e-08 2.584232e-07
0.006          4.479313e-05 7.475241e-07 2.644508e-06 3.697447e-05 6.846830e-07 2.398521e-06 7.818662e-06 6.284104e-08 2.459865e-07
0.0061         4.454157e-05 7.161104e-07 2.462927e-06 3.674771e-05 6.591901e-07 2.241934e-06 7.793861e-06 5.692031e-08 2.209935e-07
0.0062         4.433640e-05 7.033412e-07 2.359548e-06 3.656550e-05 6.516391e-07 2.166561e-06 7.770901e-06 5.170211e-08 1.929867e-07
0.0063         4.418608e-05 7.163786e-07 2.411583e-06 3.643220e-05 6.696222e-07 2.238308e-06 7.753874e-06 4.675643e-08 1.732748e-07
0.0064         4.407866e-05 7.672293e-07 2.643007e-06 3.634109e-05 7.216781e-07 2.476605e-06 7.737571e-06 4.555123e-08 1.664021e-07
0.0065         4.401458e-05 8.503776e-07 3.050761e-06 3.629137e-05 8.034862e-07 2.873674e-06 7.723210e-06 4.689140e-08 1.770870e-07
0.0066         4.398426e-05 9.668845e-07 3.593516e-06 3.627670e-05 9.139932e-07 3.390025e-06 7.707561e-06 5.289129e-08 2.034907e-07
0.0067         4.399246e-05 1.102818e-06 4.229220e-06 3.629613e-05 1.041764e-06 3.986075e-06 7.696332e-06 6.105341e-08 2.431449e-07
0.0068         4.403095e-05 1.253001e-06 4.899720e-06 3.634376e-05 1.180788e-06 4.609804e-06 7.687189e-06 7.221389e-08 2.899159e-07
0.0069         4.411057e-05 1.403510e-06 5.571843e-06 3.642399e-05 1.320153e-06 5.232394e-06 7.686581e-06 8.335662e-08 3.394490e-07
0.007          4.421919e-05 1.549731e-06 6.206222e-06 3.652673e-05 1.454550e-06 5.818108e-06 7.692462e-06 9.518072e-08 3.881135e-07
0.0071         4.435835e-05 1.681493e-06 6.790856e-06 3.665044e-05 1.576305e-06 6.357047e-06 7.707910e-06 1.051879e-07 4.338089e-07
0.0072         4.451486e-05 1.801092e-06 7.310119e-06 3.678713e-05 1.686008e-06 6.837069e-06 7.727725e-06 1.150843e-07 4.730500e-07
0.0073         4.469084e-05 1.901185e-06 7.767112e-06 3.693734e-05 1.778608e-06 7.259682e-06 7.753500e-06 1.225769e-07 5.074296e-07
0.0074         4.487399e-05 1.983548e-06 8.153934e-06 3.709398e-05 1.854054e-06 7.618398e-06 7.780017e-06 1.294941e-07 5.355351e-07
0.0075         4.506549e-05 2.043964e-06 8.476522e-06 3.725788e-05 1.909879e-06 7.916313e-06 7.807613e-06 1.340848e-07 5.602082e-07
0.0076         4.524930e-05 2.086082e-06 8.719231e-06 3.741795e-05 1.947607e-06 8.138977e-06 7.831347e-06 1.384742e-07 5.802546e-07
0.0077         4.543771e-05 2.105396e-06 8.878527e-06 3.758228e-05 1.964345e-06 8.282037e-06 7.855436e-06 1.410515e-07 5.964908e-07
0.0078         4.561239e-05 2.106198e-06 8.935235e-06 3.773737e-05 1.962562e-06 8.328617e-06 7.875019e-06 1.436358e-07 6.066173e-07
0.0079         4.576813e-05 2.083024e-06 8.882258e-06 3.787632e-05 1.938898e-06 8.270978e-06 7.891805e-06 1.441264e-07 6.112799e-07
0.008          4.589115e-05 2.041026e-06 8.705272e-06 3.798889e-05 1.897032e-06 8.098500e-06 7.902264e-06 1.439943e-07 6.067721e-07
0.0081         4.598477e-05 1.976346e-06 8.411053e-06 3.807501e-05 1.835064e-06 7.816778e-06 7.909756e-06 1.412823e-07 5.942750e-07
0.0082         4.604373e-05 1.895215e-06 8.000609e-06 3.813205e-05 1.757287e-06 7.428976e-06 7.911684e-06 1.379279e-07 5.716332e-07
0.0083         4.602950e-05 1.781267e-06 7.433345e-06 3.812292e-05 1.650947e-06 6.899228e-06 7.906576e-06 1.303195e-07 5.341172e-07
0.0084         4.600835e-05 1.684330e-06 6.925423e-06 3.811061e-05 1.560475e-06 6.429324e-06 7.897746e-06 1.238552e-07 4.960989e-07
0.0085         4.600184e-05 1.555896e-06 6.279367e-06 3.810557e-05 1.442066e-06 5.832569e-06 7.896269e-06 1.138301e-07 4.467981e-07
0.0086         4.596544e-05 1.459722e-06 5.769991e-06 3.807910e-05 1.354146e-06 5.369427e-06 7.886345e-06 1.055766e-07 4.005636e-07
0.0087         4.595893e-05 1.345727e-06 5.192774e-06 3.807554e-05 1.250625e-06 4.842739e-06 7.883386e-06 9.510242e-08 3.500342e-07
0.0088         4.592254e-05 1.274671e-06 4.798078e-06 3.804700e-05 1.187225e-06 4.490146e-06 7.875539e-06 8.744650e-08 3.079315e-07
0.0089         4.592102e-05 1.210578e-06 4.447290e-06 3.804682e-05 1.130488e-06 4.174173e-06 7.874197e-06 8.008989e-08 2.731177e-07
0.009          4.591182e-05 1.166255e-06 4.171970e-06 3.804001e-05 1.091454e-06 3.928779e-06 7.871801e-06 7.480115e-08 2.431902e-07
0.0091         4.589162e-05 1.136862e-06 3.977901e-06 3.802182e-05 1.066356e-06 3.754985e-06 7.869799e-06 7.050534e-08 2.229157e-07
0.0092         4.585113e-05 1.123593e-06 3.843786e-06 3.798631e-05 1.054597e-06 3.633547e-06 7.864820e-06 6.899564e-08 2.102384e-07
0.0093         4.579690e-05 1.115298e-06 3.753382e-06 3.793638e-05 1.047656e-06 3.548140e-06 7.860515e-06 6.764151e-08 2.052413e-07
0.0094         4.571288e-05 1.111612e-06 3.672957e-06 3.786091e-05 1.043608e-06 3.470447e-06 7.851965e-06 6.800318e-08 2.025099e-07
0.0095         4.560831e-05 1.102779e-06 3.590095e-06 3.776480e-05 1.035117e-06 3.387605e-06 7.843511e-06 6.766277e-08 2.024901e-07
0.0096         4.547976e-05 1.090460e-06 3.486026e-06 3.764786e-05 1.022325e-06 3.284750e-06 7.831902e-06 6.813548e-08 2.012761e-07
0.0097         4.534050e-05 1.068192e-06 3.358502e-06 3.751932e-05 1.001034e-06 3.159060e-06 7.821183e-06 6.715795e-08 1.994421e-07
0.0098         4.518937e-05 1.041141e-06 3.201171e-06 3.738153e-05 9.745215e-07 3.006398e-06 7.807843e-06 6.661948e-08 1.947734e-07
0.0099         4.504897e-05 1.006129e-06 3.027088e-06 3.725178e-05 9.417302e-07 2.838826e-06 7.797189e-06 6.439873e-08 1.882620e-07
0.01           4.491184e-05 9.699240e-07 2.818525e-06 3.712665e-05 9.073527e-07 2.642061e-06 7.785185e-06 6.257138e-08 1.764641e-07
0.0101         4.483152e-05 9.379740e-07 2.640084e-06 3.705164e-05 8.779694e-07 2.474027e-06 7.779880e-06 6.000455e-08 1.660572e-07
0.0102         4.473606e-05 9.155342e-07 2.478382e-06 3.696673e-05 8.570127e-07 2.323777e-06 7.769330e-06 5.852149e-08 1.546046e-07
0.0103         4.464052e-05 9.011025e-07 2.351036e-06 3.688253e-05 8.445781e-07 2.206083e-06 7.757985e-06 5.652439e-08 1.449536e-07
0.0104         4.454568e-05 9.028069e-07 2.260367e-06 3.680199e-05 8.464078e-07 2.124027e-06 7.743695e-06 5.639910e-08 1.363407e-07
0.0105         4.446201e-05 9.131323e-07 2.219332e-06 3.673139e-05 8.570784e-07 2.087506e-06 7.730620e-06 5.605391e-08 1.318259e-07
0.0106         4.435739e-05 9.391232e-07 2.203271e-06 3.664504e-05 8.814549e-07 2.074774e-06 7.712350e-06 5.766829e-08 1.284968e-07
0.0107         4.427891e-05 9.744330e-07 2.221650e-06 3.657985e-05 9.152925e-07 2.092742e-06 7.699065e-06 5.914054e-08 1.289079e-07
0.0108         4.422156e-05 1.021612e-06 2.261013e-06 3.653384e-05 9.593121e-07 2.130254e-06 7.687720e-06 6.229943e-08 1.307583e-07
0.0109         4.418583e-05 1.072486e-06 2.316444e-06 3.650515e-05 1.007415e-06 2.181284e-06 7.680686e-06 6.507119e-08 1.351606e-07
0.011          4.415543e-05 1.129847e-06 2.372823e-06 3.648230e-05 1.060662e-06 2.233614e-06 7.673129e-06 6.918491e-08 1.392085e-07
0.0111         4.413465e-05 1.187436e-06 2.431345e-06 3.646598e-05 1.114846e-06 2.287027e-06 7.668672e-06 7.258965e-08 1.443177e-07
0.0112         4.411524e-05 1.249499e-06 2.484821e-06 3.645189e-05 1.172365e-06 2.336594e-06 7.663350e-06 7.713419e-08 1.482276e-07
0.0113         4.410405e-05 1.310318e-06 2.538435e-06 3.644315e-05 1.229593e-06 2.385713e-06 7.660895e-06 8.072454e-08 1.527217e-07
0.0114         4.409200e-05 1.375734e-06 2.587965e-06 3.643490e-05 1.290460e-06 2.432207e-06 7.657101e-06 8.527398e-08 1.557587e-07
0.0115         4.409378e-05 1.438850e-06 2.638191e-06 3.643690e-05 1.350045e-06 2.479021e-06 7.656878e-06 8.880452e-08 1.591695e-07
0.0116         4.409136e-05 1.506812e-06 2.687856e-06 3.643719e-05 1.413457e-06 2.526370e-06 7.654170e-06 9.335537e-08 1.614859e-07
0.0117         4.409198e-05 1.576146e-06 2.744751e-06 3.643934e-05 1.478914e-06 2.579861e-06 7.652643e-06 9.723268e-08 1.648902e-07
0.0118         4.409074e-05 1.652200e-06 2.804509e-06 3.644126e-05 1.549924e-06 2.636894e-06 7.649480e-06 1.022765e-07 1.676150e-07
0.0119         4.409689e-05 1.730564e-06 2.873592e-06 3.644817e-05 1.623895e-06 2.701734e-06 7.648722e-06 1.066689e-07 1.718575e-07
0.012          4.410367e-05 1.815785e-06 2.945766e-06 3.645670e-05 1.703536e-06 2.770039e-06 7.646964e-06 1.122493e-07 1.757272e-07
0.0121         4.411821e-05 1.902506e-06 3.024774e-06 3.647058e-05 1.785310e-06 2.843715e-06 7.647626e-06 1.171962e-07 1.810584e-07
0.0122         4.413245e-05 1.995120e-06 3.103215e-06 3.648551e-05 1.871799e-06 2.917472e-06 7.646946e-06 1.233213e-07 1.857431e-07
0.0123         4.415525e-05 2.092346e-06 3.187769e-06 3.650596e-05 1.963185e-06 2.996032e-06 7.649293e-06 1.291616e-07 1.917368e-07
0.0124         4.417785e-05 2.194820e-06 3.268469e-06 3.652730e-05 2.058680e-06 3.071721e-06 7.650542e-06 1.361405e-07 1.967480e-07
0.0125         4.420732e-05 2.295643e-06 3.348714e-06 3.655315e-05 2.153395e-06 3.146025e-06 7.654175e-06 1.422478e-07 2.026893e-07
0.0126         4.423565e-05 2.398362e-06 3.421504e-06 3.657908e-05 2.249192e-06 3.214187e-06 7.656567e-06 1.491706e-07 2.073169e-07
0.0127         4.427050e-05 2.498494e-06 3.491776e-06 3.660920e-05 2.343249e-06 3.279158e-06 7.661299e-06 1.552448e-07 2.126180e-07
0.0128         4.430483e-05 2.599959e-06 3.553713e-06 3.663987e-05 2.437606e-06 3.337176e-06 7.664956e-06 1.623529e-07 2.165370e-07
0.0129         4.434439e-05 2.696183e-06 3.611960e-06 3.667366e-05 2.527867e-06 3.390952e-06 7.670729e-06 1.683165e-07 2.210077e-07
0.013          4.438198e-05 2.790785e-06 3.660631e-06 3.670707e-05 2.615764e-06 3.436577e-06 7.674905e-06 1.750208e-07 2.240534e-07
0.0131         4.442477e-05 2.878827e-06 3.704588e-06 3.674354e-05 2.698235e-06 3.477033e-06 7.681230e-06 1.805924e-07 2.275547e-07
0.0132         4.446494e-05 2.964056e-06 3.738331e-06 3.677899e-05 2.777315e-06 3.508664e-06 7.685954e-06 1.867409e-07 2.296668e-07
0.0133         4.450981e-05 3.040708e-06 3.766032e-06 3.681702e-05 2.849106e-06 3.533788e-06 7.692789e-06 1.916018e-07 2.322437e-07
0.0134         4.455018e-05 3.112710e-06 3.781012e-06 3.685247e-05 2.915853e-06 3.547927e-06 7.697712e-06 1.968571e-07 2.330848e-07
0.0135         4.459341e-05 3.174177e-06 3.789011e-06 3.688902e-05 2.973602e-06 3.554571e-06 7.704393e-06 2.005750e-07 2.344404e-07
0.0136         4.463152e-05 3.229297e-06 3.784328e-06 3.692242e-05 3.024737e-06 3.550128e-06 7.709097e-06 2.045593e-07 2.341998e-07
0.0137         4.467132e-05 3.273224e-06 3.771646e-06 3.695600e-05 3.066026e-06 3.537411e-06 7.715317e-06 2.071976e-07 2.342346e-07
0.0138         4.470579e-05 3.309396e-06 3.745052e-06 3.698618e-05 3.099399e-06 3.512633e-06 7.719612e-06 2.099969e-07 2.324188e-07
0.0139         4.474205e-05 3.333209e-06 3.709839e-06 3.701645e-05 3.122107e-06 3.479039e-06 7.725593e-06 2.111021e-07 2.308004e-07
0.014          4.477036e-05 3.349142e-06 3.660941e-06 3.704142e-05 3.136594e-06 3.433602e-06 7.728936e-06 2.125485e-07 2.273393e-07
0.0141         4.480013e-05 3.352386e-06 3.605173e-06 3.706592e-05 3.139973e-06 3.380933e-06 7.734215e-06 2.124135e-07 2.242407e-07
0.0142         4.482260e-05 3.348320e-06 3.536859e-06 3.708528e-05 3.135926e-06 3.317211e-06 7.737326e-06 2.123936e-07 2.196477e-07
0.0143         4.484342e-05 3.332795e-06 3.462916e-06 3.710211e-05 3.122027e-06 3.247656e-06 7.741308e-06 2.107677e-07 2.152605e-07
0.0144         4.485670e-05 3.311358e-06 3.379097e-06 3.711357e-05 3.101906e-06 3.169770e-06 7.743135e-06 2.094519e-07 2.093269e-07
0.0145         4.486936e-05 3.279634e-06 3.292325e-06 3.712307e-05 3.072915e-06 3.088312e-06 7.746295e-06 2.067191e-07 2.040131e-07
0.0146         4.487389e-05 3.243001e-06 3.198128e-06 3.712719e-05 3.038609e-06 3.000832e-06 7.746699e-06 2.043920e-07 1.972962e-07
0.0147         4.487922e-05 3.197830e-06 3.103975e-06 3.713038e-05 2.997147e-06 2.912458e-06 7.748837e-06 2.006833e-07 1.915164e-07
0.0148         4.487691e-05 3.150883e-06 3.004501e-06 3.712821e-05 2.953211e-06 2.820018e-06 7.748703e-06 1.976715e-07 1.844828e-07
0.0149         4.487364e-05 3.097077e-06 2.907340e-06 3.712406e-05 2.903718e-06 2.728866e-06 7.749587e-06 1.933590e-07 1.784736e-07
0.015          4.486268e-05 3.043110e-06 2.807227e-06 3.711451e-05 2.853286e-06 2.635756e-06 7.748166e-06 1.898242e-07 1.714710e-07
0.0151         4.485196e-05 2.984671e-06 2.711612e-06 3.710381e-05 2.799425e-06 2.545966e-06 7.748141e-06 1.852454e-07 1.656467e-07
0.0152         4.483477e-05 2.928506e-06 2.615886e-06 3.708888e-05 2.746948e-06 2.457111e-06 7.745890e-06 1.815581e-07 1.587754e-07
0.0153         4.481759e-05 2.869324e-06 2.524841e-06 3.707271e-05 2.692282e-06 2.371616e-06 7.744888e-06 1.770422e-07 1.532242e-07
0.0154         4.479387e-05 2.813129e-06 2.434579e-06 3.705200e-05 2.639582e-06 2.287505e-06 7.741864e-06 1.735470e-07 1.470742e-07
0.0155         4.477079e-05 2.755209e-06 2.350608e-06 3.703060e-05 2.585996e-06 2.208426e-06 7.740190e-06 1.692133e-07 1.421817e-07
0.0156         4.474134e-05 2.701631e-06 2.267431e-06 3.700511e-05 2.535613e-06 2.130984e-06 7.736235e-06 1.660182e-07 1.364476e-07
0.0157         4.471285e-05 2.646559e-06 2.190952e-06 3.697919e-05 2.484662e-06 2.058921e-06 7.733661e-06 1.618975e-07 1.320314e-07
0.0158         4.467913e-05 2.595996e-06 2.115706e-06 3.694993e-05 2.437142e-06 1.988786e-06 7.729199e-06 1.588533e-07 1.269205e-07
0.0159         4.465226e-05 2.547831e-06 2.049495e-06 3.692486e-05 2.392524e-06 1.926316e-06 7.727403e-06 1.553068e-07 1.231784e-07
0.016          4.461458e-05 2.503411e-06 1.982891e-06 3.689266e-05 2.350638e-06 1.864359e-06 7.721925e-06 1.527723e-07 1.185316e-07
0.0161         4.458565e-05 2.459951e-06 1.924627e-06 3.686616e-05 2.310434e-06 1.809334e-06 7.719499e-06 1.495165e-07 1.152931e-07
0.0162         4.454691e-05 2.420958e-06 1.865845e-06 3.683335e-05 2.273601e-06 1.754712e-06 7.713559e-06 1.473563e-07 1.111329e-07
0.0163         4.451265e-05 2.382623e-06 1.813221e-06 3.680295e-05 2.238154e-06 1.705104e-06 7.709700e-06 1.444687e-07 1.081172e-07
0.0164         4.447665e-05 2.351315e-06 1.762502e-06 3.677248e-05 2.208505e-06 1.658022e-06 7.704170e-06 1.428094e-07 1.044807e-07
0.0165         4.444620e-05 2.321722e-06 1.719279e-06 3.674550e-05 2.181396e-06 1.617048e-06 7.700703e-06 1.403254e-07 1.022309e-07
0.0166         4.441313e-05 2.299459e-06 1.677953e-06 3.671769e-05 2.160260e-06 1.578592e-06 7.695447e-06 1.391993e-07 9.936119e-08
0.0167         4.438439e-05 2.279109e-06 1.643240e-06 3.669258e-05 2.141679e-06 1.545560e-06 7.691808e-06 1.374303e-07 9.767949e-08
0.0168         4.435331e-05 2.265434e-06 1.609593e-06 3.666686e-05 2.128560e-06 1.514393e-06 7.686453e-06 1.368745e-07 9.519952e-08
0.0169         4.432681e-05 2.253008e-06 1.582620e-06 3.664400e-05 2.117448e-06 1.488568e-06 7.682812e-06 1.355602e-07 9.405198e-08
0.017          4.429851e-05 2.247350e-06 1.555991e-06 3.662094e-05 2.111856e-06 1.463990e-06 7.677562e-06 1.354939e-07 9.200184e-08
0.0171         4.427553e-05 2.243805e-06 1.535684e-06 3.660124e-05 2.108993e-06 1.444517e-06 7.674291e-06 1.348119e-07 9.116701e-08
0.0172         4.425094e-05 2.247221e-06 1.515636e-06 3.658153e-05 2.111775e-06 1.426100e-06 7.669410e-06 1.354461e-07 8.953598e-08
0.0173         4.423150e-05 2.251312e-06 1.501815e-06 3.656514e-05 2.116050e-06 1.412523e-06 7.666370e-06 1.352618e-07 8.929197e-08
0.0174         4.421633e-05 2.260898e-06 1.488219e-06 3.655301e-05 2.124743e-06 1.400027e-06 7.663312e-06 1.361553e-07 8.819201e-08
0.0175         4.420413e-05 2.271488e-06 1.480037e-06 3.654268e-05 2.135142e-06 1.391865e-06 7.661445e-06 1.363455e-07 8.817189e-08
