# Moment      
# CofR        : (0.000000e+00 0.000000e+00 0.000000e+00)
#
# Time        	total_x total_y total_z	pressure_x pressure_y pressure_z	viscous_x viscous_y viscous_z
0.0001         -2.169962e-10 -5.935605e-09 6.626685e-09 -5.801910e-12 -4.842728e-12 -2.473754e-11 -2.111943e-10 -5.930762e-09 6.651423e-09
0.0002         1.348949e-11 2.485503e-09 -5.730125e-10 2.139602e-11 -6.265399e-11 1.027088e-11 -7.906532e-12 2.548157e-09 -5.832834e-10
0.0003         6.964263e-12 -3.044851e-09 2.237935e-09 2.580429e-11 -1.168029e-10 9.326234e-12 -1.884003e-11 -2.928048e-09 2.228609e-09
0.0004         -2.295898e-10 -1.458284e-09 -1.057172e-09 1.290577e-11 -1.420983e-10 -1.502933e-11 -2.424956e-10 -1.316186e-09 -1.042143e-09
0.0005         -2.501904e-10 5.216272e-10 -3.559679e-09 4.346987e-12 -1.356585e-10 -1.906815e-11 -2.545374e-10 6.572857e-10 -3.540611e-09
0.0006         -2.121610e-10 2.726445e-09 -5.393326e-09 -4.407824e-12 -1.136910e-10 -1.090201e-11 -2.077532e-10 2.840136e-09 -5.382423e-09
0.0007         -1.965869e-10 4.065477e-09 -5.300285e-09 -1.232586e-11 -8.730093e-11 7.578776e-12 -1.842610e-10 4.152778e-09 -5.307864e-09
0.0008         -1.541666e-11 5.626745e-09 -4.639307e-09 -1.649340e-11 -5.724311e-11 1.713101e-11 1.076744e-12 5.683988e-09 -4.656438e-09
0.0009         4.468488e-11 6.650789e-09 -4.236455e-09 -1.964082e-11 -3.131711e-11 1.575019e-11 6.432569e-11 6.682106e-09 -4.252206e-09
0.001          6.182292e-11 7.625343e-09 -3.584031e-09 -2.263822e-11 -7.853364e-12 6.710348e-12 8.446114e-11 7.633197e-09 -3.590741e-09
0.0011         5.034182e-11 8.582064e-09 -2.891889e-09 -2.393152e-11 1.666847e-11 -8.221975e-12 7.427334e-11 8.565395e-09 -2.883667e-09
0.0012         3.896836e-12 9.724927e-09 -2.420963e-09 -2.451181e-11 4.205956e-11 -2.441772e-11 2.840865e-11 9.682867e-09 -2.396546e-09
0.0013         -3.590159e-11 1.039808e-08 -1.929912e-09 -2.410876e-11 6.698574e-11 -4.003817e-11 -1.179283e-11 1.033109e-08 -1.889873e-09
0.0014         -6.305646e-11 1.110734e-08 -1.606239e-09 -2.313928e-11 9.230909e-11 -5.438913e-11 -3.991718e-11 1.101503e-08 -1.551850e-09
0.0015         -7.090381e-11 1.158877e-08 -1.628561e-09 -2.004985e-11 1.198493e-10 -6.860866e-11 -5.085395e-11 1.146892e-08 -1.559952e-09
0.0016         -4.799630e-11 1.197137e-08 -1.637490e-09 -1.613245e-11 1.534467e-10 -8.285300e-11 -3.186385e-11 1.181792e-08 -1.554637e-09
0.0017         -3.986610e-11 1.170065e-08 -1.759567e-09 -1.211617e-11 1.893219e-10 -9.543239e-11 -2.774992e-11 1.151132e-08 -1.664135e-09
0.0018         7.693843e-13 9.940961e-09 -1.412980e-09 -8.481635e-12 2.270315e-10 -1.030382e-10 9.251019e-12 9.713930e-09 -1.309942e-09
0.0019         6.392852e-12 8.915203e-09 -1.631097e-09 -6.063407e-12 2.619746e-10 -1.060183e-10 1.245626e-11 8.653229e-09 -1.525079e-09
0.002          -3.586791e-11 1.056557e-08 -2.116332e-09 -3.454072e-12 2.932876e-10 -1.064097e-10 -3.241383e-11 1.027228e-08 -2.009922e-09
0.0021         -7.529187e-11 1.400921e-08 -2.963949e-09 -5.110946e-12 3.229829e-10 -1.046746e-10 -7.018093e-11 1.368623e-08 -2.859275e-09
0.0022         -7.899640e-11 1.798908e-08 -3.600578e-09 -5.750974e-12 3.600036e-10 -1.027301e-10 -7.324543e-11 1.762907e-08 -3.497848e-09
0.0023         -8.232396e-11 2.200103e-08 -4.354166e-09 -5.916287e-12 4.071292e-10 -1.027158e-10 -7.640767e-11 2.159390e-08 -4.251451e-09
0.0024         -7.222827e-11 2.573604e-08 -4.769328e-09 -5.126433e-12 4.641225e-10 -1.027934e-10 -6.710184e-11 2.527191e-08 -4.666535e-09
0.0025         -6.967285e-11 2.927519e-08 -5.349956e-09 -4.091658e-12 5.268786e-10 -1.035472e-10 -6.558119e-11 2.874831e-08 -5.246408e-09
0.0026         -6.646551e-11 3.327980e-08 -5.863706e-09 -2.629640e-12 5.929936e-10 -1.047885e-10 -6.383587e-11 3.268681e-08 -5.758918e-09
0.0027         -5.953372e-11 3.739838e-08 -6.841156e-09 -1.159029e-12 6.587266e-10 -1.083696e-10 -5.837469e-11 3.673965e-08 -6.732786e-09
0.0028         -6.000085e-11 4.189283e-08 -7.724150e-09 7.493829e-13 7.252206e-10 -1.127178e-10 -6.075023e-11 4.116761e-08 -7.611432e-09
0.0029         -4.008771e-11 4.602744e-08 -8.843584e-09 4.160491e-12 7.903537e-10 -1.211047e-10 -4.424820e-11 4.523709e-08 -8.722479e-09
0.003          -4.863331e-11 4.964939e-08 -9.643203e-09 6.149988e-12 8.555709e-10 -1.309325e-10 -5.478329e-11 4.879382e-08 -9.512270e-09
0.0031         -5.706337e-11 5.186369e-08 -1.044092e-08 4.089420e-12 9.142383e-10 -1.443556e-10 -6.115279e-11 5.094945e-08 -1.029657e-08
0.0032         -1.242025e-10 5.237853e-08 -1.074922e-08 -1.255048e-12 9.642443e-10 -1.594836e-10 -1.229475e-10 5.141429e-08 -1.058974e-08
0.0033         -2.038548e-10 5.025838e-08 -1.089774e-08 -8.322607e-12 9.975376e-10 -1.782374e-10 -1.955322e-10 4.926084e-08 -1.071951e-08
0.0034         -3.314403e-10 4.484389e-08 -1.027091e-08 -1.773465e-11 1.012614e-09 -2.001637e-10 -3.137057e-10 4.383127e-08 -1.007075e-08
0.0035         -4.745732e-10 3.460328e-08 -9.066467e-09 -2.950055e-11 1.007285e-09 -2.256194e-10 -4.450727e-10 3.359600e-08 -8.840848e-09
0.0036         -4.123194e-10 1.827263e-08 -6.215654e-09 -4.209781e-11 9.910330e-10 -2.506315e-10 -3.702216e-10 1.728160e-08 -5.965023e-09
0.0037         -4.090518e-10 -6.234680e-09 -2.198670e-09 -5.684588e-11 9.752832e-10 -2.798971e-10 -3.522059e-10 -7.209963e-09 -1.918773e-09
0.0038         -4.292269e-10 -3.832703e-08 3.298087e-09 -7.176381e-11 9.779128e-10 -3.108198e-10 -3.574631e-10 -3.930494e-08 3.608907e-09
0.0039         -5.426333e-10 -7.507861e-08 9.394783e-09 -8.725506e-11 1.026474e-09 -3.516109e-10 -4.553782e-10 -7.610508e-08 9.746394e-09
0.004          -8.623165e-10 -1.114582e-07 1.620664e-08 -1.024705e-10 1.141993e-09 -4.020545e-10 -7.598459e-10 -1.126001e-07 1.660870e-08
0.0041         -1.268255e-09 -1.472569e-07 2.254597e-08 -1.179170e-10 1.318200e-09 -4.630195e-10 -1.150338e-09 -1.485751e-07 2.300899e-08
0.0042         -1.659440e-09 -1.783879e-07 2.839760e-08 -1.321389e-10 1.544330e-09 -5.270979e-10 -1.527301e-09 -1.799322e-07 2.892469e-08
0.0043         -1.893872e-09 -2.000918e-07 3.166154e-08 -1.455705e-10 1.763278e-09 -5.852518e-10 -1.748301e-09 -2.018551e-07 3.224680e-08
0.0044         -2.050646e-09 -2.064452e-07 3.274841e-08 -1.558872e-10 1.892581e-09 -6.141471e-10 -1.894758e-09 -2.083378e-07 3.336256e-08
0.0045         -2.304182e-09 -1.976073e-07 3.040976e-08 -1.653935e-10 1.860678e-09 -6.102588e-10 -2.138788e-09 -1.994680e-07 3.102002e-08
0.0046         -2.466212e-09 -1.711870e-07 2.511730e-08 -1.711655e-10 1.664527e-09 -5.691963e-10 -2.295047e-09 -1.728515e-07 2.568650e-08
0.0047         -1.717874e-09 -1.290092e-07 1.708790e-08 -1.773019e-10 1.343038e-09 -5.055899e-10 -1.540572e-09 -1.303522e-07 1.759349e-08
0.0048         -8.880084e-10 -7.385987e-08 7.724488e-09 -1.833806e-10 9.476552e-10 -4.190534e-10 -7.046278e-10 -7.480752e-08 8.143541e-09
0.0049         -8.620922e-10 -1.244190e-08 -2.663634e-09 -1.875411e-10 4.925653e-10 -3.178214e-10 -6.745511e-10 -1.293447e-08 -2.345812e-09
0.005          -1.223334e-09 4.227494e-08 -1.174963e-08 -1.902071e-10 1.012408e-11 -2.090013e-10 -1.033127e-09 4.226482e-08 -1.154063e-08
0.0051         -1.310650e-09 7.905197e-08 -1.727198e-08 -1.861967e-10 -4.362806e-10 -1.084947e-10 -1.124453e-09 7.948825e-08 -1.716348e-08
0.0052         -1.303729e-09 9.300338e-08 -1.813771e-08 -1.752848e-10 -7.727360e-10 -2.410951e-11 -1.128444e-09 9.377612e-08 -1.811360e-08
0.0053         -1.146094e-09 8.438992e-08 -1.521426e-08 -1.554839e-10 -9.470293e-10 3.964562e-11 -9.906100e-10 8.533695e-08 -1.525391e-08
0.0054         -6.700112e-10 6.477893e-08 -1.015617e-08 -1.252077e-10 -9.428839e-10 8.576058e-11 -5.448034e-10 6.572182e-08 -1.024193e-08
0.0055         -4.327968e-10 3.577563e-08 -4.984597e-09 -8.763841e-11 -8.000408e-10 1.077416e-10 -3.451584e-10 3.657567e-08 -5.092339e-09
0.0056         -1.263796e-10 6.540220e-09 1.071015e-10 -5.059114e-11 -5.560847e-10 1.078169e-10 -7.578849e-11 7.096304e-09 -7.154130e-13
0.0057         1.042139e-10 -1.780286e-08 3.993840e-09 -2.094426e-11 -2.599288e-10 8.968146e-11 1.251582e-10 -1.754293e-08 3.904158e-09
0.0058         1.695564e-10 -3.288755e-08 6.296395e-09 -3.768173e-12 4.448637e-11 6.128446e-11 1.733246e-10 -3.293204e-08 6.235110e-09
0.0059         1.015790e-10 -3.808303e-08 6.435616e-09 3.757604e-12 3.074188e-10 2.618307e-11 9.782143e-11 -3.839045e-08 6.409433e-09
0.006          -5.392638e-12 -3.358847e-08 4.995063e-09 5.397945e-12 4.986703e-10 -6.507457e-12 -1.079058e-11 -3.408714e-08 5.001570e-09
0.0061         -8.332445e-11 -2.221272e-08 2.115942e-09 6.337369e-12 6.001636e-10 -3.373787e-11 -8.966182e-11 -2.281288e-08 2.149679e-09
0.0062         -1.067875e-10 -6.823332e-09 -1.140933e-09 6.968463e-12 6.189696e-10 -5.074946e-11 -1.137559e-10 -7.442302e-09 -1.090183e-09
0.0063         -9.049089e-11 8.757079e-09 -4.529724e-09 7.084712e-12 5.729488e-10 -5.953819e-11 -9.757560e-11 8.184130e-09 -4.470186e-09
0.0064         -6.194629e-11 2.215002e-08 -7.134788e-09 4.712225e-12 4.951032e-10 -5.981470e-11 -6.665851e-11 2.165491e-08 -7.074974e-09
0.0065         -4.691768e-11 3.120607e-08 -9.070176e-09 5.867365e-13 4.137166e-10 -5.795583e-11 -4.750441e-11 3.079235e-08 -9.012220e-09
0.0066         -9.372517e-11 3.564039e-08 -9.850651e-09 -4.986819e-12 3.571203e-10 -5.410603e-11 -8.873835e-11 3.528327e-08 -9.796545e-09
0.0067         -6.101050e-11 3.593301e-08 -9.977427e-09 -9.161727e-12 3.355239e-10 -5.439785e-11 -5.184877e-11 3.559749e-08 -9.923030e-09
0.0068         -4.534922e-11 3.366752e-08 -9.319675e-09 -1.190896e-11 3.553911e-10 -5.934519e-11 -3.344026e-11 3.331213e-08 -9.260330e-09
0.0069         5.353637e-12 3.072634e-08 -8.576379e-09 -1.184583e-11 4.099684e-10 -7.274592e-11 1.719947e-11 3.031637e-08 -8.503633e-09
0.007          -1.412797e-11 2.776410e-08 -7.679646e-09 -1.058492e-11 4.872309e-10 -9.195793e-11 -3.543059e-12 2.727687e-08 -7.587688e-09
0.0071         -3.665090e-11 2.520489e-08 -7.108199e-09 -8.799636e-12 5.689924e-10 -1.175996e-10 -2.785127e-11 2.463590e-08 -6.990600e-09
0.0072         -8.649115e-11 2.337039e-08 -6.408024e-09 -8.786353e-12 6.433535e-10 -1.459652e-10 -7.770480e-11 2.272704e-08 -6.262059e-09
0.0073         -1.522408e-10 2.157106e-08 -5.830556e-09 -1.073288e-11 6.980661e-10 -1.775829e-10 -1.415080e-10 2.087299e-08 -5.652973e-09
0.0074         -1.819205e-10 1.966063e-08 -4.938908e-09 -1.499156e-11 7.320346e-10 -2.090830e-10 -1.669290e-10 1.892860e-08 -4.729825e-09
0.0075         -2.818746e-10 1.694249e-08 -4.202538e-09 -2.169521e-11 7.468453e-10 -2.424210e-10 -2.601793e-10 1.619565e-08 -3.960117e-09
0.0076         -4.418109e-10 1.325635e-08 -3.158896e-09 -3.046137e-11 7.525928e-10 -2.733144e-10 -4.113495e-10 1.250376e-08 -2.885581e-09
0.0077         -4.944339e-10 8.640541e-09 -2.165002e-09 -4.006232e-11 7.549507e-10 -3.029917e-10 -4.543716e-10 7.885591e-09 -1.862010e-09
0.0078         -5.046134e-10 3.400355e-09 -7.728335e-10 -4.971395e-11 7.620557e-10 -3.282538e-10 -4.548994e-10 2.638300e-09 -4.445797e-10
0.0079         -4.657137e-10 -2.281173e-09 4.399195e-10 -5.818369e-11 7.748135e-10 -3.516457e-10 -4.075300e-10 -3.055986e-09 7.915652e-10
0.008          -4.215410e-10 -7.323648e-09 1.716565e-09 -6.527661e-11 7.954186e-10 -3.701075e-10 -3.562644e-10 -8.119067e-09 2.086672e-09
0.0081         -3.789372e-10 -1.147078e-08 2.553826e-09 -7.041113e-11 8.196733e-10 -3.855861e-10 -3.085261e-10 -1.229045e-08 2.939412e-09
0.0082         -3.976029e-10 -1.416235e-08 3.364797e-09 -7.336565e-11 8.445968e-10 -3.946896e-10 -3.242372e-10 -1.500694e-08 3.759487e-09
0.0083         -4.128356e-10 -1.416719e-08 3.331796e-09 -7.423154e-11 8.628368e-10 -4.001695e-10 -3.386041e-10 -1.503003e-08 3.731966e-09
0.0084         -4.500616e-10 -1.169275e-08 3.091250e-09 -7.259164e-11 8.778046e-10 -3.971213e-10 -3.774699e-10 -1.257055e-08 3.488371e-09
0.0085         -4.764872e-10 -7.636698e-09 2.246348e-09 -6.969723e-11 8.668327e-10 -3.870610e-10 -4.067900e-10 -8.503530e-09 2.633409e-09
0.0086         -5.178459e-10 -1.268302e-09 1.128729e-09 -6.525477e-11 8.494430e-10 -3.682877e-10 -4.525911e-10 -2.117745e-09 1.497017e-09
0.0087         -5.381088e-10 5.647588e-09 -4.440241e-10 -5.993709e-11 8.075560e-10 -3.433453e-10 -4.781717e-10 4.840032e-09 -1.006787e-10
0.0088         -5.416935e-10 1.338287e-08 -2.053425e-09 -5.324781e-11 7.610887e-10 -3.115363e-10 -4.884457e-10 1.262178e-08 -1.741889e-09
0.0089         -5.126802e-10 1.944953e-08 -3.583814e-09 -4.604241e-11 7.010096e-10 -2.758497e-10 -4.666378e-10 1.874852e-08 -3.307964e-09
0.009          -4.449869e-10 2.466255e-08 -4.743049e-09 -3.757955e-11 6.422976e-10 -2.378387e-10 -4.074073e-10 2.402025e-08 -4.505210e-09
0.0091         -3.304148e-10 2.766247e-08 -5.676465e-09 -2.808304e-11 5.871579e-10 -2.029317e-10 -3.023317e-10 2.707531e-08 -5.473534e-09
0.0092         -2.044831e-10 2.851585e-08 -5.925699e-09 -1.874612e-11 5.416674e-10 -1.709667e-10 -1.857370e-10 2.797419e-08 -5.754732e-09
0.0093         -1.105825e-10 2.708145e-08 -5.991373e-09 -1.076854e-11 5.065584e-10 -1.465457e-10 -9.981397e-11 2.657489e-08 -5.844827e-09
0.0094         -1.460927e-11 2.448783e-08 -5.506334e-09 -4.192566e-12 4.849052e-10 -1.276315e-10 -1.041670e-11 2.400293e-08 -5.378703e-09
0.0095         6.262083e-11 2.087589e-08 -4.995046e-09 8.257386e-13 4.733248e-10 -1.163841e-10 6.179509e-11 2.040257e-08 -4.878662e-09
0.0096         1.102022e-10 1.722610e-08 -4.234901e-09 3.957386e-12 4.717367e-10 -1.095701e-10 1.062448e-10 1.675437e-08 -4.125331e-09
0.0097         1.433131e-10 1.368755e-08 -3.706533e-09 5.851932e-12 4.748370e-10 -1.082981e-10 1.374612e-10 1.321271e-08 -3.598235e-09
0.0098         1.576391e-10 1.090958e-08 -3.104315e-09 6.567092e-12 4.817306e-10 -1.086045e-10 1.510720e-10 1.042785e-08 -2.995710e-09
0.0099         1.572517e-10 9.031642e-09 -2.956836e-09 6.358683e-12 4.852208e-10 -1.111591e-10 1.508930e-10 8.546421e-09 -2.845677e-09
0.01           1.447122e-10 8.740306e-09 -2.872101e-09 5.394818e-12 4.848812e-10 -1.121767e-10 1.393174e-10 8.255425e-09 -2.759924e-09
0.0101         1.350237e-10 9.096351e-09 -3.215424e-09 4.284174e-12 4.753016e-10 -1.132611e-10 1.307396e-10 8.621049e-09 -3.102162e-09
0.0102         1.339785e-10 1.026854e-08 -3.539075e-09 3.120412e-12 4.580991e-10 -1.112221e-10 1.308581e-10 9.810443e-09 -3.427853e-09
0.0103         1.296321e-10 1.175332e-08 -4.211315e-09 2.376560e-12 4.330624e-10 -1.091326e-10 1.272555e-10 1.132026e-08 -4.102183e-09
0.0104         1.209708e-10 1.353017e-08 -4.699735e-09 1.223578e-12 4.051128e-10 -1.043704e-10 1.197473e-10 1.312505e-08 -4.595365e-09
0.0105         1.260332e-10 1.491003e-08 -5.415415e-09 3.641725e-13 3.754508e-10 -1.004116e-10 1.256690e-10 1.453458e-08 -5.315003e-09
0.0106         1.356906e-10 1.614904e-08 -5.857149e-09 -4.464512e-13 3.496709e-10 -9.571606e-11 1.361371e-10 1.579937e-08 -5.761433e-09
0.0107         1.496069e-10 1.670332e-08 -6.381407e-09 -7.287922e-13 3.272843e-10 -9.311544e-11 1.503357e-10 1.637604e-08 -6.288292e-09
0.0108         1.657033e-10 1.689472e-08 -6.565631e-09 -8.884424e-13 3.116786e-10 -9.029114e-11 1.665918e-10 1.658304e-08 -6.475340e-09
0.0109         1.724963e-10 1.645215e-08 -6.852037e-09 -6.206333e-13 3.011589e-10 -9.031861e-11 1.731169e-10 1.615099e-08 -6.761719e-09
0.011          2.011598e-10 1.597481e-08 -6.818695e-09 -1.009115e-13 2.977919e-10 -9.051998e-11 2.012608e-10 1.567702e-08 -6.728175e-09
0.0111         2.184783e-10 1.524685e-08 -6.955595e-09 1.165623e-12 2.983471e-10 -9.370905e-11 2.173126e-10 1.494850e-08 -6.861886e-09
0.0112         2.256634e-10 1.481397e-08 -6.865061e-09 2.295865e-12 3.038804e-10 -9.723958e-11 2.233675e-10 1.451009e-08 -6.767821e-09
0.0113         2.295999e-10 1.437865e-08 -7.085046e-09 3.102034e-12 3.102296e-10 -1.036157e-10 2.264979e-10 1.406842e-08 -6.981430e-09
0.0114         2.286595e-10 1.437713e-08 -7.176252e-09 3.394270e-12 3.182707e-10 -1.096300e-10 2.252653e-10 1.405886e-08 -7.066622e-09
0.0115         2.307236e-10 1.433865e-08 -7.394279e-09 3.780775e-12 3.240690e-10 -1.170264e-10 2.269429e-10 1.401458e-08 -7.277253e-09
0.0116         2.282210e-10 1.466574e-08 -7.489686e-09 3.847567e-12 3.301694e-10 -1.238551e-10 2.243735e-10 1.433557e-08 -7.365831e-09
0.0117         2.304150e-10 1.495550e-08 -7.814801e-09 3.827723e-12 3.340143e-10 -1.319115e-10 2.265873e-10 1.462149e-08 -7.682889e-09
0.0118         2.278336e-10 1.551848e-08 -8.040357e-09 3.551256e-12 3.385577e-10 -1.387023e-10 2.242823e-10 1.517992e-08 -7.901654e-09
0.0119         2.346990e-10 1.584998e-08 -8.463357e-09 3.970277e-12 3.413148e-10 -1.461768e-10 2.307287e-10 1.550867e-08 -8.317180e-09
0.012          2.366311e-10 1.624855e-08 -8.736844e-09 4.050591e-12 3.455953e-10 -1.525366e-10 2.325805e-10 1.590295e-08 -8.584308e-09
0.0121         2.468174e-10 1.634972e-08 -9.203308e-09 4.609446e-12 3.498888e-10 -1.609556e-10 2.422080e-10 1.599983e-08 -9.042352e-09
0.0122         2.525637e-10 1.653409e-08 -9.460726e-09 5.022337e-12 3.568540e-10 -1.688286e-10 2.475414e-10 1.617724e-08 -9.291897e-09
0.0123         2.618110e-10 1.651787e-08 -1.000652e-08 5.756433e-12 3.643704e-10 -1.791102e-10 2.560546e-10 1.615350e-08 -9.827414e-09
0.0124         2.662213e-10 1.660070e-08 -1.023483e-08 6.148395e-12 3.736487e-10 -1.880474e-10 2.600730e-10 1.622705e-08 -1.004678e-08
0.0125         2.790285e-10 1.643532e-08 -1.057992e-08 6.677992e-12 3.825924e-10 -1.987624e-10 2.723505e-10 1.605273e-08 -1.038116e-08
0.0126         2.827765e-10 1.642716e-08 -1.069374e-08 6.791422e-12 3.937600e-10 -2.086960e-10 2.759851e-10 1.603340e-08 -1.048504e-08
0.0127         2.910542e-10 1.617719e-08 -1.089975e-08 7.103461e-12 4.040820e-10 -2.200923e-10 2.839507e-10 1.577311e-08 -1.067966e-08
0.0128         2.906802e-10 1.608117e-08 -1.083926e-08 7.103245e-12 4.154988e-10 -2.305159e-10 2.835770e-10 1.566567e-08 -1.060874e-08
0.0129         2.969974e-10 1.579513e-08 -1.096013e-08 7.186582e-12 4.249527e-10 -2.424795e-10 2.898108e-10 1.537017e-08 -1.071765e-08
0.013          2.917727e-10 1.570980e-08 -1.090937e-08 6.768260e-12 4.347720e-10 -2.529344e-10 2.850044e-10 1.527503e-08 -1.065644e-08
0.0131         2.959537e-10 1.540634e-08 -1.101381e-08 6.933143e-12 4.425944e-10 -2.644519e-10 2.890206e-10 1.496374e-08 -1.074936e-08
0.0132         2.950407e-10 1.526598e-08 -1.089318e-08 7.299140e-12 4.508082e-10 -2.748837e-10 2.877415e-10 1.481518e-08 -1.061829e-08
0.0133         3.021922e-10 1.493118e-08 -1.094062e-08 8.015983e-12 4.569445e-10 -2.863947e-10 2.941762e-10 1.447423e-08 -1.065422e-08
0.0134         3.026691e-10 1.481181e-08 -1.077633e-08 8.720646e-12 4.641363e-10 -2.958702e-10 2.939485e-10 1.434767e-08 -1.048046e-08
0.0135         3.098223e-10 1.446714e-08 -1.079254e-08 9.623156e-12 4.694676e-10 -3.059186e-10 3.001991e-10 1.399767e-08 -1.048662e-08
0.0136         3.023398e-10 1.422946e-08 -1.062912e-08 9.673565e-12 4.749089e-10 -3.139019e-10 2.926662e-10 1.375455e-08 -1.031522e-08
0.0137         3.057956e-10 1.374825e-08 -1.061371e-08 9.953645e-12 4.779387e-10 -3.219602e-10 2.958420e-10 1.327032e-08 -1.029175e-08
0.0138         3.015909e-10 1.345270e-08 -1.043692e-08 1.015567e-11 4.811716e-10 -3.277791e-10 2.914352e-10 1.297153e-08 -1.010914e-08
0.0139         3.044553e-10 1.296622e-08 -1.045997e-08 1.014877e-11 4.815990e-10 -3.337572e-10 2.943066e-10 1.248462e-08 -1.012621e-08
0.014          2.948466e-10 1.274792e-08 -1.026777e-08 9.567198e-12 4.819684e-10 -3.371053e-10 2.852795e-10 1.226595e-08 -9.930665e-09
0.0141         2.990822e-10 1.236351e-08 -1.023732e-08 9.051820e-12 4.794698e-10 -3.405221e-10 2.900303e-10 1.188404e-08 -9.896796e-09
0.0142         2.842202e-10 1.217783e-08 -1.004745e-08 8.616041e-12 4.770009e-10 -3.412103e-10 2.756042e-10 1.170082e-08 -9.706237e-09
0.0143         2.889645e-10 1.187918e-08 -1.003739e-08 8.670692e-12 4.719152e-10 -3.416369e-10 2.802938e-10 1.140726e-08 -9.695752e-09
0.0144         2.841240e-10 1.181184e-08 -9.899396e-09 8.357034e-12 4.669219e-10 -3.396607e-10 2.757670e-10 1.134492e-08 -9.559736e-09
0.0145         2.880470e-10 1.158854e-08 -9.975199e-09 8.305453e-12 4.595537e-10 -3.380736e-10 2.797416e-10 1.112899e-08 -9.637125e-09
0.0146         2.807991e-10 1.158278e-08 -9.933589e-09 8.160175e-12 4.521989e-10 -3.346655e-10 2.726389e-10 1.113058e-08 -9.598923e-09
0.0147         2.800961e-10 1.135525e-08 -1.010038e-08 8.124827e-12 4.423561e-10 -3.319003e-10 2.719713e-10 1.091289e-08 -9.768484e-09
0.0148         2.739734e-10 1.135355e-08 -1.005111e-08 7.749479e-12 4.331131e-10 -3.269683e-10 2.662239e-10 1.092043e-08 -9.724144e-09
0.0149         2.723072e-10 1.114879e-08 -1.018745e-08 6.991176e-12 4.214728e-10 -3.229805e-10 2.653160e-10 1.072732e-08 -9.864469e-09
0.015          2.563327e-10 1.116698e-08 -1.015783e-08 5.604973e-12 4.107051e-10 -3.171586e-10 2.507277e-10 1.075627e-08 -9.840671e-09
0.0151         2.516793e-10 1.091685e-08 -1.028489e-08 4.416732e-12 3.982758e-10 -3.120976e-10 2.472626e-10 1.051857e-08 -9.972793e-09
0.0152         2.431185e-10 1.092701e-08 -1.027495e-08 3.004566e-12 3.871770e-10 -3.052577e-10 2.401140e-10 1.053984e-08 -9.969687e-09
0.0153         2.415854e-10 1.073521e-08 -1.041416e-08 1.897964e-12 3.746592e-10 -2.991855e-10 2.396874e-10 1.036055e-08 -1.011498e-08
0.0154         2.281660e-10 1.071151e-08 -1.037248e-08 4.819091e-13 3.636554e-10 -2.919151e-10 2.276841e-10 1.034786e-08 -1.008057e-08
0.0155         2.237901e-10 1.048179e-08 -1.049921e-08 -2.711574e-13 3.516830e-10 -2.859790e-10 2.240613e-10 1.013011e-08 -1.021323e-08
0.0156         2.120848e-10 1.044974e-08 -1.038602e-08 -1.196695e-12 3.414073e-10 -2.786375e-10 2.132815e-10 1.010833e-08 -1.010739e-08
0.0157         2.079456e-10 1.024722e-08 -1.046186e-08 -2.074354e-12 3.301718e-10 -2.730221e-10 2.100200e-10 9.917045e-09 -1.018883e-08
0.0158         1.982292e-10 1.022549e-08 -1.039608e-08 -2.927917e-12 3.206506e-10 -2.667935e-10 2.011571e-10 9.904842e-09 -1.012928e-08
0.0159         1.951966e-10 1.007955e-08 -1.050230e-08 -3.142358e-12 3.104955e-10 -2.618206e-10 1.983389e-10 9.769055e-09 -1.024048e-08
0.016          1.779323e-10 9.993620e-09 -1.034461e-08 -3.844845e-12 3.015138e-10 -2.552742e-10 1.817771e-10 9.692106e-09 -1.008933e-08
0.0161         1.715937e-10 9.811815e-09 -1.047137e-08 -4.488735e-12 2.920390e-10 -2.508842e-10 1.760824e-10 9.519775e-09 -1.022048e-08
0.0162         1.564276e-10 9.741411e-09 -1.037173e-08 -5.373829e-12 2.836549e-10 -2.452628e-10 1.618014e-10 9.457756e-09 -1.012647e-08
0.0163         1.501050e-10 9.598661e-09 -1.051592e-08 -5.445039e-12 2.752486e-10 -2.411841e-10 1.555500e-10 9.323413e-09 -1.027474e-08
0.0164         1.396629e-10 9.648017e-09 -1.048172e-08 -5.351804e-12 2.689492e-10 -2.359895e-10 1.450147e-10 9.379068e-09 -1.024573e-08
0.0165         1.354122e-10 9.480484e-09 -1.062963e-08 -4.853050e-12 2.611693e-10 -2.323614e-10 1.402653e-10 9.219315e-09 -1.039727e-08
0.0166         1.225650e-10 9.458656e-09 -1.058121e-08 -4.663534e-12 2.549738e-10 -2.278980e-10 1.272285e-10 9.203683e-09 -1.035331e-08
0.0167         1.166315e-10 9.255543e-09 -1.071812e-08 -4.692927e-12 2.480863e-10 -2.251718e-10 1.213244e-10 9.007456e-09 -1.049295e-08
0.0168         1.047529e-10 9.250991e-09 -1.067861e-08 -5.101570e-12 2.427557e-10 -2.213935e-10 1.098545e-10 9.008235e-09 -1.045721e-08
0.0169         1.010555e-10 9.048333e-09 -1.086852e-08 -5.201019e-12 2.362151e-10 -2.194063e-10 1.062565e-10 8.812118e-09 -1.064911e-08
0.017          9.357231e-11 9.060655e-09 -1.090398e-08 -5.246740e-12 2.315646e-10 -2.166583e-10 9.881905e-11 8.829090e-09 -1.068732e-08
0.0171         9.367052e-11 8.887044e-09 -1.106508e-08 -4.620842e-12 2.261476e-10 -2.152290e-10 9.829137e-11 8.660896e-09 -1.084985e-08
0.0172         8.338636e-11 8.911563e-09 -1.100905e-08 -4.391304e-12 2.227780e-10 -2.128807e-10 8.777766e-11 8.688785e-09 -1.079617e-08
0.0173         7.795783e-11 8.736992e-09 -1.116272e-08 -4.291924e-12 2.185290e-10 -2.121612e-10 8.224975e-11 8.518463e-09 -1.095055e-08
0.0174         6.946639e-11 8.744353e-09 -1.117740e-08 -4.188793e-12 2.161881e-10 -2.105028e-10 7.365518e-11 8.528165e-09 -1.096690e-08
0.0175         6.464101e-11 8.548818e-09 -1.133758e-08 -4.053340e-12 2.129484e-10 -2.102461e-10 6.869435e-11 8.335870e-09 -1.112734e-08
