# Force and moment coefficients
# dragDir     : (1.000000e+00 0.000000e+00 0.000000e+00)
# sideDir     : (0.000000e+00 1.000000e+00 0.000000e+00)
# liftDir     : (0.000000e+00 0.000000e+00 1.000000e+00)
# rollAxis    : (1.000000e+00 0.000000e+00 0.000000e+00)
# pitchAxis   : (0.000000e+00 1.000000e+00 0.000000e+00)
# yawAxis     : (0.000000e+00 0.000000e+00 1.000000e+00)
# magUInf     : 1.360000e-02
# lRef        : 1.000000e+00
# Aref        : 7.850000e-01
# CofR        : (0.000000e+00 0.000000e+00 0.000000e+00)
#
# Time        	Cd            	Cd(f)         	Cd(r)         	Cl            	Cl(f)         	Cl(r)         	CmPitch       	CmRoll        	CmYaw         	Cs            	Cs(f)         	Cs(r)         
0.0001        	5.458708e-01	2.729330e-01	2.729378e-01	-1.890540e-03	-1.012014e-03	-8.785262e-04	-6.674387e-05	-2.440050e-06	7.451484e-05	4.279150e-04	2.884724e-04	1.394427e-04
0.0002        	6.749674e-01	3.374838e-01	3.374835e-01	-2.375549e-03	-1.159826e-03	-1.215723e-03	2.794865e-05	1.516847e-07	-6.443333e-06	-1.385537e-03	-6.992118e-04	-6.863251e-04
0.0003        	6.743428e-01	3.371715e-01	3.371713e-01	-2.062508e-03	-1.065492e-03	-9.970156e-04	-3.423833e-05	7.831079e-08	2.516482e-05	-2.532034e-03	-1.240852e-03	-1.291182e-03
0.0004        	6.376639e-01	3.188294e-01	3.188345e-01	-1.302179e-03	-6.674874e-04	-6.346916e-04	-1.639792e-05	-2.581660e-06	-1.188754e-05	-3.008323e-03	-1.516049e-03	-1.492274e-03
0.0005        	6.030163e-01	3.015054e-01	3.015110e-01	-3.248681e-04	-1.565685e-04	-1.682996e-04	5.865522e-06	-2.813307e-06	-4.002739e-05	-2.797302e-03	-1.438679e-03	-1.358624e-03
0.0006        	5.791613e-01	2.895783e-01	2.895830e-01	8.035705e-04	4.324432e-04	3.711273e-04	3.065795e-05	-2.385679e-06	-6.064613e-05	-2.063453e-03	-1.092372e-03	-9.710802e-04
0.0007        	5.678445e-01	2.839200e-01	2.839245e-01	2.012188e-03	1.051809e-03	9.603793e-04	4.571492e-05	-2.210553e-06	-5.959992e-05	-1.027152e-03	-5.731759e-04	-4.539760e-04
0.0008        	5.623264e-01	2.811630e-01	2.811634e-01	3.382422e-03	1.754482e-03	1.627940e-03	6.327085e-05	-1.733551e-07	-5.216744e-05	1.858249e-04	4.074502e-05	1.450799e-04
0.0009        	5.604998e-01	2.802504e-01	2.802494e-01	5.039553e-03	2.594562e-03	2.444991e-03	7.478588e-05	5.024664e-07	-4.763751e-05	1.451394e-03	6.780593e-04	7.733344e-04
0.001         	5.613824e-01	2.806919e-01	2.806905e-01	6.766207e-03	3.468848e-03	3.297359e-03	8.574441e-05	6.951779e-07	-4.030121e-05	2.609862e-03	1.264630e-03	1.345232e-03
0.0011        	5.612192e-01	2.806102e-01	2.806090e-01	8.407627e-03	4.300316e-03	4.107311e-03	9.650241e-05	5.660768e-07	-3.251832e-05	3.492156e-03	1.713560e-03	1.778596e-03
0.0012        	5.574080e-01	2.787041e-01	2.787040e-01	1.002171e-02	5.120210e-03	4.901503e-03	1.093535e-04	4.381860e-08	-2.722291e-05	4.200010e-03	2.072782e-03	2.127228e-03
0.0013        	5.523412e-01	2.761702e-01	2.761710e-01	1.160996e-02	5.921901e-03	5.688055e-03	1.169229e-04	-4.037013e-07	-2.170121e-05	4.692471e-03	2.324534e-03	2.367937e-03
0.0014        	5.432612e-01	2.716299e-01	2.716313e-01	1.320202e-02	6.725908e-03	6.476111e-03	1.248983e-04	-7.090486e-07	-1.806162e-05	5.042380e-03	2.503128e-03	2.539251e-03
0.0015        	5.315700e-01	2.657842e-01	2.657858e-01	1.492672e-02	7.593673e-03	7.333049e-03	1.303118e-04	-7.972894e-07	-1.831262e-05	5.288520e-03	2.625947e-03	2.662573e-03
0.0016        	5.192035e-01	2.596012e-01	2.596023e-01	1.677161e-02	8.520420e-03	8.251192e-03	1.346140e-04	-5.397022e-07	-1.841302e-05	5.508710e-03	2.735942e-03	2.772768e-03
0.0017        	5.072373e-01	2.536182e-01	2.536191e-01	1.881787e-02	9.540506e-03	9.277367e-03	1.315698e-04	-4.482808e-07	-1.978574e-05	5.708677e-03	2.834553e-03	2.874124e-03
0.0018        	4.966458e-01	2.483229e-01	2.483229e-01	2.109795e-02	1.066076e-02	1.043719e-02	1.117828e-04	8.651467e-09	-1.588848e-05	5.932998e-03	2.950610e-03	2.982387e-03
0.0019        	4.880647e-01	2.440324e-01	2.440323e-01	2.368794e-02	1.194422e-02	1.174372e-02	1.002485e-04	7.188547e-08	-1.834114e-05	6.151870e-03	3.057594e-03	3.094276e-03
0.002         	4.820560e-01	2.410276e-01	2.410284e-01	2.658019e-02	1.340890e-02	1.317129e-02	1.188062e-04	-4.033225e-07	-2.379744e-05	6.426233e-03	3.189319e-03	3.236914e-03
0.0021        	4.787627e-01	2.393805e-01	2.393822e-01	2.979399e-02	1.505453e-02	1.473947e-02	1.575289e-04	-8.466317e-07	-3.332861e-05	6.703532e-03	3.318437e-03	3.385094e-03
0.0022        	4.776007e-01	2.387995e-01	2.388012e-01	3.341612e-02	1.691034e-02	1.650578e-02	2.022811e-04	-8.882879e-07	-4.048729e-05	7.072693e-03	3.495859e-03	3.576834e-03
0.0023        	4.778818e-01	2.389400e-01	2.389418e-01	3.759246e-02	1.904363e-02	1.854884e-02	2.473942e-04	-9.257051e-07	-4.896113e-05	7.524324e-03	3.713201e-03	3.811123e-03
0.0024        	4.788848e-01	2.394416e-01	2.394432e-01	4.242804e-02	2.150341e-02	2.092463e-02	2.893930e-04	-8.121826e-07	-5.362949e-05	8.106840e-03	3.999790e-03	4.107049e-03
0.0025        	4.802225e-01	2.401105e-01	2.401121e-01	4.805028e-02	2.435433e-02	2.369595e-02	3.291896e-04	-7.834477e-07	-6.015845e-05	8.800253e-03	4.339968e-03	4.460285e-03
0.0026        	4.816636e-01	2.408310e-01	2.408325e-01	5.453482e-02	2.764163e-02	2.689319e-02	3.742202e-04	-7.473822e-07	-6.593540e-05	9.650962e-03	4.759545e-03	4.891416e-03
0.0027        	4.832743e-01	2.416365e-01	2.416378e-01	6.203424e-02	3.143765e-02	3.059659e-02	4.205321e-04	-6.694366e-07	-7.692649e-05	1.063971e-02	5.242930e-03	5.396783e-03
0.0028        	4.850743e-01	2.425365e-01	2.425378e-01	7.062018e-02	3.578116e-02	3.483902e-02	4.710708e-04	-6.746893e-07	-8.685546e-05	1.183717e-02	5.831730e-03	6.005441e-03
0.0029        	4.873007e-01	2.436499e-01	2.436508e-01	8.038456e-02	4.070984e-02	3.967472e-02	5.175630e-04	-4.507727e-07	-9.944312e-05	1.321991e-02	6.510513e-03	6.709399e-03
0.003         	4.900365e-01	2.450177e-01	2.450188e-01	9.126605e-02	4.619131e-02	4.507473e-02	5.582907e-04	-5.468651e-07	-1.084346e-04	1.483184e-02	7.307485e-03	7.524354e-03
0.0031        	4.935094e-01	2.467541e-01	2.467554e-01	1.031349e-01	5.215065e-02	5.098427e-02	5.831897e-04	-6.416584e-07	-1.174047e-04	1.659133e-02	8.178261e-03	8.413071e-03
0.0032        	4.977290e-01	2.488631e-01	2.488659e-01	1.156564e-01	5.841716e-02	5.723920e-02	5.889790e-04	-1.396615e-06	-1.208714e-04	1.849773e-02	9.127992e-03	9.369734e-03
0.0033        	5.028137e-01	2.514046e-01	2.514092e-01	1.284184e-01	6.477432e-02	6.364404e-02	5.651385e-04	-2.292278e-06	-1.225414e-04	2.042625e-02	1.009058e-02	1.033567e-02
0.0034        	5.085811e-01	2.542868e-01	2.542943e-01	1.407232e-01	7.086583e-02	6.985733e-02	5.042544e-04	-3.726935e-06	-1.154929e-04	2.233741e-02	1.105321e-02	1.128420e-02
0.0035        	5.149329e-01	2.574611e-01	2.574718e-01	1.518405e-01	7.630934e-02	7.553114e-02	3.891022e-04	-5.336416e-06	-1.019494e-04	2.405561e-02	1.192586e-02	1.212976e-02
0.0036        	5.214393e-01	2.607150e-01	2.607243e-01	1.607958e-01	8.060336e-02	8.019243e-02	2.054696e-04	-4.636392e-06	-6.989293e-05	2.554231e-02	1.270126e-02	1.284105e-02
0.0037        	5.285727e-01	2.642818e-01	2.642910e-01	1.667123e-01	8.328606e-02	8.342627e-02	-7.010688e-05	-4.599649e-06	-2.472331e-05	2.659915e-02	1.327485e-02	1.332430e-02
0.0038        	5.344658e-01	2.672281e-01	2.672377e-01	1.682838e-01	8.371095e-02	8.457289e-02	-4.309745e-04	-4.826512e-06	3.708588e-05	2.709177e-02	1.358297e-02	1.350880e-02
0.0039        	5.387729e-01	2.693803e-01	2.693925e-01	1.644732e-01	8.139236e-02	8.308082e-02	-8.442336e-04	-6.101728e-06	1.056412e-04	2.675836e-02	1.348482e-02	1.327354e-02
0.004         	5.411957e-01	2.705882e-01	2.706075e-01	1.544525e-01	7.597294e-02	7.847956e-02	-1.253309e-03	-9.696458e-06	1.822382e-04	2.548010e-02	1.292229e-02	1.255781e-02
0.0041        	5.418886e-01	2.709300e-01	2.709585e-01	1.379673e-01	6.732781e-02	7.063951e-02	-1.655854e-03	-1.426110e-05	2.535218e-04	2.306132e-02	1.178418e-02	1.127714e-02
0.0042        	5.408554e-01	2.704090e-01	2.704463e-01	1.151182e-01	5.555319e-02	5.956501e-02	-2.005912e-03	-1.865984e-05	3.193214e-04	1.958533e-02	1.011199e-02	9.473344e-03
0.0043        	5.386843e-01	2.693209e-01	2.693635e-01	8.709240e-02	4.129624e-02	4.579617e-02	-2.249965e-03	-2.129595e-05	3.560234e-04	1.514013e-02	7.926087e-03	7.214040e-03
0.0044        	5.362179e-01	2.680859e-01	2.681320e-01	5.568992e-02	2.552355e-02	3.016637e-02	-2.321407e-03	-2.305882e-05	3.682449e-04	1.004091e-02	5.388698e-03	4.652208e-03
0.0045        	5.343715e-01	2.671598e-01	2.672117e-01	2.338411e-02	9.470027e-03	1.391408e-02	-2.222027e-03	-2.590975e-05	3.419475e-04	4.687691e-03	2.685793e-03	2.001898e-03
0.0046        	5.329424e-01	2.664435e-01	2.664989e-01	-7.038816e-03	-5.444348e-03	-1.594468e-03	-1.924940e-03	-2.773173e-05	2.824356e-04	-3.175215e-04	1.236748e-04	-4.411963e-04
0.0047        	5.314897e-01	2.657256e-01	2.657642e-01	-3.256933e-02	-1.773533e-02	-1.483400e-02	-1.450664e-03	-1.931692e-05	1.921476e-04	-4.483738e-03	-2.049721e-03	-2.434016e-03
0.0048        	5.297266e-01	2.648533e-01	2.648733e-01	-5.093762e-02	-2.629934e-02	-2.463828e-02	-8.305293e-04	-9.985355e-06	8.685926e-05	-7.393592e-03	-3.609937e-03	-3.783655e-03
0.0049        	5.281809e-01	2.640808e-01	2.641002e-01	-6.080073e-02	-3.054027e-02	-3.026046e-02	-1.399050e-04	-9.693936e-06	-2.995166e-05	-8.872578e-03	-4.466241e-03	-4.406337e-03
0.005         	5.272760e-01	2.636242e-01	2.636517e-01	-6.233362e-02	-3.069144e-02	-3.164218e-02	4.753675e-04	-1.375598e-05	-1.321207e-04	-8.871130e-03	-4.567686e-03	-4.303444e-03
0.0051        	5.268021e-01	2.633863e-01	2.634158e-01	-5.604070e-02	-2.713144e-02	-2.890926e-02	8.889127e-04	-1.473781e-05	-1.942175e-04	-7.529574e-03	-3.959004e-03	-3.570569e-03
0.0052        	5.264469e-01	2.632088e-01	2.632381e-01	-4.311724e-02	-2.051283e-02	-2.260441e-02	1.045792e-03	-1.465999e-05	-2.039524e-04	-4.949628e-03	-2.678766e-03	-2.270862e-03
0.0053        	5.259798e-01	2.629770e-01	2.630028e-01	-2.597059e-02	-1.203636e-02	-1.393423e-02	9.489362e-04	-1.288744e-05	-1.710792e-04	-1.678532e-03	-1.010345e-03	-6.681868e-04
0.0054        	5.245397e-01	2.622623e-01	2.622774e-01	-7.875038e-03	-3.209102e-03	-4.665936e-03	7.284173e-04	-7.534049e-06	-1.142027e-04	1.719970e-03	7.457825e-04	9.741878e-04
0.0055        	5.219655e-01	2.609779e-01	2.609876e-01	8.402949e-03	4.603760e-03	3.799190e-03	4.022849e-04	-4.866654e-06	-5.605011e-05	4.609757e-03	2.248828e-03	2.360928e-03
0.0056        	5.184620e-01	2.592296e-01	2.592324e-01	2.057993e-02	1.036351e-02	1.021642e-02	7.354256e-05	-1.421096e-06	1.204320e-06	6.788033e-03	3.395221e-03	3.392812e-03
0.0057        	5.145824e-01	2.572924e-01	2.572900e-01	2.809785e-02	1.384874e-02	1.424911e-02	-2.001872e-04	1.171850e-06	4.490938e-05	8.100865e-03	4.095342e-03	4.005523e-03
0.0058        	5.106481e-01	2.553260e-01	2.553221e-01	3.134587e-02	1.530313e-02	1.604275e-02	-3.698094e-04	1.906604e-06	7.080084e-05	8.684880e-03	4.413241e-03	4.271639e-03
0.0059        	5.070055e-01	2.535039e-01	2.535016e-01	3.146328e-02	1.530341e-02	1.615987e-02	-4.282309e-04	1.142222e-06	7.236634e-05	8.680698e-03	4.412716e-03	4.267983e-03
0.006         	5.036837e-01	2.518418e-01	2.518419e-01	2.973660e-02	1.449061e-02	1.524599e-02	-3.776910e-04	-6.063840e-08	5.616780e-05	8.405656e-03	4.258996e-03	4.146660e-03
0.0061        	5.008549e-01	2.504265e-01	2.504284e-01	2.769478e-02	1.359762e-02	1.409717e-02	-2.497746e-04	-9.369553e-07	2.379305e-05	8.052419e-03	4.050003e-03	4.002417e-03
0.0062        	4.985479e-01	2.492727e-01	2.492751e-01	2.653232e-02	1.318943e-02	1.334288e-02	-7.672607e-05	-1.200789e-06	-1.282940e-05	7.908835e-03	3.941588e-03	3.967247e-03
0.0063        	4.968575e-01	2.484277e-01	2.484298e-01	2.711744e-02	1.365719e-02	1.346025e-02	9.847040e-05	-1.017540e-06	-5.093522e-05	8.055436e-03	3.976783e-03	4.078653e-03
0.0064        	4.956497e-01	2.478241e-01	2.478255e-01	2.971973e-02	1.510893e-02	1.461079e-02	2.490695e-04	-6.965651e-07	-8.022829e-05	8.627235e-03	4.233389e-03	4.393846e-03
0.0065        	4.949291e-01	2.474640e-01	2.474651e-01	3.430478e-02	1.750329e-02	1.680149e-02	3.509017e-04	-5.275735e-07	-1.019911e-04	9.562209e-03	4.679114e-03	4.883096e-03
0.0066        	4.945882e-01	2.472930e-01	2.472951e-01	4.040788e-02	2.060470e-02	1.980317e-02	4.007641e-04	-1.053908e-06	-1.107672e-04	1.087229e-02	5.325378e-03	5.546912e-03
0.0067        	4.946804e-01	2.473395e-01	2.473409e-01	4.755615e-02	2.418213e-02	2.337402e-02	4.040546e-04	-6.860425e-07	-1.121928e-04	1.240082e-02	6.088215e-03	6.312600e-03
0.0068        	4.951131e-01	2.475561e-01	2.475571e-01	5.509570e-02	2.792643e-02	2.716927e-02	3.785799e-04	-5.099367e-07	-1.047966e-04	1.408958e-02	6.939993e-03	7.149586e-03
0.0069        	4.960084e-01	2.480043e-01	2.480042e-01	6.265349e-02	3.167225e-02	3.098124e-02	3.455073e-04	6.019985e-08	-9.643849e-05	1.578199e-02	7.794557e-03	7.987434e-03
0.007         	4.972299e-01	2.486148e-01	2.486151e-01	6.978687e-02	3.520563e-02	3.458124e-02	3.121979e-04	-1.588643e-07	-8.635503e-05	1.742620e-02	8.626746e-03	8.799456e-03
0.0071        	4.987947e-01	2.493969e-01	2.493978e-01	7.636088e-02	3.846386e-02	3.789702e-02	2.834205e-04	-4.121271e-07	-7.992930e-05	1.890782e-02	9.373980e-03	9.533839e-03
0.0072        	5.005545e-01	2.502763e-01	2.502782e-01	8.219982e-02	4.136270e-02	4.083712e-02	2.627922e-04	-9.725638e-07	-7.205607e-05	2.025267e-02	1.005428e-02	1.019839e-02
0.0073        	5.025334e-01	2.512650e-01	2.512684e-01	8.733855e-02	4.391184e-02	4.342672e-02	2.425592e-04	-1.711897e-06	-6.556263e-05	2.137818e-02	1.062353e-02	1.075465e-02
0.0074        	5.045929e-01	2.522944e-01	2.522985e-01	9.168823e-02	4.606519e-02	4.562304e-02	2.210772e-04	-2.045635e-06	-5.553635e-05	2.230433e-02	1.109663e-02	1.120770e-02
0.0075        	5.067463e-01	2.533700e-01	2.533763e-01	9.531563e-02	4.784833e-02	4.746730e-02	1.905126e-04	-3.169584e-06	-4.725612e-05	2.298368e-02	1.144459e-02	1.153910e-02
0.0076        	5.088131e-01	2.544016e-01	2.544115e-01	9.804482e-02	4.917147e-02	4.887334e-02	1.490632e-04	-4.968015e-06	-3.552072e-05	2.345728e-02	1.169312e-02	1.176416e-02
0.0077        	5.109318e-01	2.554603e-01	2.554714e-01	9.983605e-02	5.001518e-02	4.982086e-02	9.715997e-05	-5.559742e-06	-2.434472e-05	2.367447e-02	1.181289e-02	1.186158e-02
0.0078        	5.128959e-01	2.564423e-01	2.564536e-01	1.004737e-01	5.027509e-02	5.019861e-02	3.823585e-05	-5.674207e-06	-8.690253e-06	2.368348e-02	1.183305e-02	1.185043e-02
0.0079        	5.146472e-01	2.573183e-01	2.573288e-01	9.987799e-02	4.991334e-02	4.996465e-02	-2.565102e-05	-5.236793e-06	4.946746e-06	2.342290e-02	1.171640e-02	1.170650e-02
0.008         	5.160305e-01	2.580105e-01	2.580200e-01	9.788784e-02	4.886157e-02	4.902627e-02	-8.235196e-05	-4.740086e-06	1.930219e-05	2.295065e-02	1.149463e-02	1.145602e-02
0.0081        	5.170832e-01	2.585373e-01	2.585459e-01	9.457945e-02	4.716074e-02	4.741871e-02	-1.289850e-04	-4.261021e-06	2.871691e-05	2.222335e-02	1.114039e-02	1.108296e-02
0.0082        	5.177463e-01	2.588687e-01	2.588776e-01	8.996415e-02	4.482282e-02	4.514133e-02	-1.592508e-04	-4.470910e-06	3.783601e-05	2.131105e-02	1.069336e-02	1.061769e-02
0.0083        	5.175862e-01	2.587884e-01	2.587977e-01	8.358546e-02	4.163342e-02	4.195203e-02	-1.593053e-04	-4.642197e-06	3.746492e-05	2.002974e-02	1.005234e-02	9.977407e-03
0.0084        	5.173484e-01	2.586691e-01	2.586793e-01	7.787405e-02	3.880554e-02	3.906851e-02	-1.314810e-04	-5.060791e-06	3.476006e-05	1.893972e-02	9.504620e-03	9.435100e-03
0.0085        	5.172752e-01	2.586322e-01	2.586429e-01	7.060936e-02	3.521881e-02	3.539055e-02	-8.587209e-05	-5.357938e-06	2.525943e-05	1.749552e-02	8.773022e-03	8.722503e-03
0.0086        	5.168659e-01	2.584271e-01	2.584388e-01	6.488160e-02	3.242654e-02	3.245506e-02	-1.426162e-05	-5.823002e-06	1.269218e-05	1.641409e-02	8.219735e-03	8.194351e-03
0.0087        	5.167927e-01	2.583903e-01	2.584024e-01	5.839099e-02	2.925900e-02	2.913199e-02	6.350523e-05	-6.050852e-06	-4.992901e-06	1.513225e-02	7.561132e-03	7.571118e-03
0.0088        	5.163835e-01	2.581857e-01	2.581978e-01	5.395277e-02	2.712687e-02	2.682590e-02	1.504858e-04	-6.091161e-06	-2.309007e-05	1.433325e-02	7.143533e-03	7.189713e-03
0.0089        	5.163664e-01	2.581774e-01	2.581890e-01	5.000828e-02	2.522284e-02	2.478544e-02	2.187034e-04	-5.764916e-06	-4.029878e-05	1.361254e-02	6.765974e-03	6.846571e-03
0.009         	5.162629e-01	2.581264e-01	2.581364e-01	4.691239e-02	2.373352e-02	2.317887e-02	2.773221e-04	-5.003727e-06	-5.333398e-05	1.311414e-02	6.503738e-03	6.610406e-03
0.0091        	5.160358e-01	2.580142e-01	2.580216e-01	4.473015e-02	2.267613e-02	2.205402e-02	3.110551e-04	-3.715403e-06	-6.382994e-05	1.278363e-02	6.327983e-03	6.455642e-03
0.0092        	5.155805e-01	2.577879e-01	2.577925e-01	4.322207e-02	2.193169e-02	2.129039e-02	3.206512e-04	-2.299343e-06	-6.663248e-05	1.263442e-02	6.250579e-03	6.383844e-03
0.0093        	5.149707e-01	2.574841e-01	2.574866e-01	4.220551e-02	2.140728e-02	2.079823e-02	3.045217e-04	-1.243463e-06	-6.737097e-05	1.254115e-02	6.203203e-03	6.337945e-03
0.0094        	5.140259e-01	2.570128e-01	2.570131e-01	4.130116e-02	2.092594e-02	2.037522e-02	2.753574e-04	-1.642763e-07	-6.191687e-05	1.249970e-02	6.187932e-03	6.311766e-03
0.0095        	5.128501e-01	2.564257e-01	2.564243e-01	4.036940e-02	2.041944e-02	1.994996e-02	2.347424e-04	7.041501e-07	-5.616761e-05	1.240038e-02	6.144023e-03	6.256359e-03
0.0096        	5.114046e-01	2.557035e-01	2.557011e-01	3.919919e-02	1.979330e-02	1.940589e-02	1.937017e-04	1.239186e-06	-4.762003e-05	1.226186e-02	6.083309e-03	6.178549e-03
0.0097        	5.098387e-01	2.549209e-01	2.549177e-01	3.776523e-02	1.903652e-02	1.872870e-02	1.539119e-04	1.611508e-06	-4.167871e-05	1.201146e-02	5.964051e-03	6.047409e-03
0.0098        	5.081392e-01	2.540714e-01	2.540678e-01	3.599609e-02	1.812072e-02	1.787537e-02	1.226745e-04	1.772599e-06	-3.490697e-05	1.170728e-02	5.818732e-03	5.888546e-03
0.0099        	5.065605e-01	2.532820e-01	2.532785e-01	3.403858e-02	1.712085e-02	1.691773e-02	1.015578e-04	1.768242e-06	-3.324863e-05	1.131358e-02	5.623541e-03	5.690039e-03
0.01          	5.050184e-01	2.525108e-01	2.525076e-01	3.169336e-02	1.594496e-02	1.574840e-02	9.828179e-05	1.627240e-06	-3.229580e-05	1.090647e-02	5.420939e-03	5.485530e-03
0.0101        	5.041153e-01	2.520592e-01	2.520561e-01	2.968686e-02	1.494571e-02	1.474114e-02	1.022854e-04	1.518296e-06	-3.615635e-05	1.054720e-02	5.237444e-03	5.309757e-03
0.0102        	5.030419e-01	2.515224e-01	2.515194e-01	2.786857e-02	1.404975e-02	1.381882e-02	1.154663e-04	1.506543e-06	-3.979571e-05	1.029487e-02	5.107641e-03	5.187232e-03
0.0103        	5.019675e-01	2.509852e-01	2.509823e-01	2.643661e-02	1.335047e-02	1.308614e-02	1.321622e-04	1.457669e-06	-4.735482e-05	1.013259e-02	5.018942e-03	5.113652e-03
0.0104        	5.009011e-01	2.504519e-01	2.504492e-01	2.541707e-02	1.286068e-02	1.255639e-02	1.521422e-04	1.360276e-06	-5.284693e-05	1.015176e-02	5.023033e-03	5.128726e-03
0.0105        	4.999603e-01	2.499816e-01	2.499787e-01	2.495564e-02	1.264548e-02	1.231016e-02	1.676583e-04	1.417200e-06	-6.089451e-05	1.026786e-02	5.073038e-03	5.194827e-03
0.0106        	4.987839e-01	2.493935e-01	2.493904e-01	2.477504e-02	1.256911e-02	1.220593e-02	1.815905e-04	1.525795e-06	-6.586167e-05	1.056012e-02	5.214200e-03	5.345924e-03
0.0107        	4.979014e-01	2.489524e-01	2.489490e-01	2.498170e-02	1.267867e-02	1.230303e-02	1.878232e-04	1.682279e-06	-7.175677e-05	1.095717e-02	5.406828e-03	5.550342e-03
0.0108        	4.972565e-01	2.486301e-01	2.486264e-01	2.542432e-02	1.290214e-02	1.252219e-02	1.899754e-04	1.863278e-06	-7.382831e-05	1.148768e-02	5.670010e-03	5.817667e-03
0.0109        	4.968548e-01	2.484293e-01	2.484254e-01	2.604763e-02	1.320882e-02	1.283882e-02	1.849989e-04	1.939663e-06	-7.704885e-05	1.205974e-02	5.952821e-03	6.106919e-03
0.011         	4.965129e-01	2.482587e-01	2.482542e-01	2.668159e-02	1.352043e-02	1.316117e-02	1.796313e-04	2.261975e-06	-7.667393e-05	1.270475e-02	6.275700e-03	6.429048e-03
0.0111        	4.962792e-01	2.481421e-01	2.481372e-01	2.733965e-02	1.384127e-02	1.349838e-02	1.714457e-04	2.456714e-06	-7.821332e-05	1.335231e-02	6.597944e-03	6.754370e-03
0.0112        	4.960610e-01	2.480330e-01	2.480280e-01	2.794098e-02	1.413707e-02	1.380391e-02	1.665781e-04	2.537509e-06	-7.719530e-05	1.405019e-02	6.947902e-03	7.102292e-03
0.0113        	4.959351e-01	2.479701e-01	2.479650e-01	2.854384e-02	1.443360e-02	1.411024e-02	1.616831e-04	2.581774e-06	-7.966895e-05	1.473408e-02	7.287373e-03	7.446711e-03
0.0114        	4.957996e-01	2.479024e-01	2.478972e-01	2.910080e-02	1.471207e-02	1.438873e-02	1.616660e-04	2.571199e-06	-8.069453e-05	1.546967e-02	7.654140e-03	7.815530e-03
0.0115        	4.958197e-01	2.479124e-01	2.479072e-01	2.966557e-02	1.499402e-02	1.467155e-02	1.612333e-04	2.594410e-06	-8.314618e-05	1.617938e-02	8.006544e-03	8.172837e-03
0.0116        	4.957925e-01	2.478988e-01	2.478937e-01	3.022403e-02	1.527693e-02	1.494710e-02	1.649112e-04	2.566268e-06	-8.421900e-05	1.694359e-02	8.387578e-03	8.556016e-03
0.0117        	4.957994e-01	2.479023e-01	2.478971e-01	3.086380e-02	1.560007e-02	1.526373e-02	1.681696e-04	2.590939e-06	-8.787480e-05	1.772324e-02	8.773743e-03	8.949492e-03
0.0118        	4.957855e-01	2.478953e-01	2.478902e-01	3.153576e-02	1.594238e-02	1.559338e-02	1.745001e-04	2.561912e-06	-9.041110e-05	1.857844e-02	9.198808e-03	9.379630e-03
0.0119        	4.958546e-01	2.479300e-01	2.479247e-01	3.231257e-02	1.633451e-02	1.597806e-02	1.782277e-04	2.639111e-06	-9.516760e-05	1.945961e-02	9.634636e-03	9.824971e-03
0.012         	4.959308e-01	2.479681e-01	2.479628e-01	3.312415e-02	1.674478e-02	1.637936e-02	1.827095e-04	2.660837e-06	-9.824287e-05	2.041789e-02	1.011070e-02	1.030719e-02
0.0121        	4.960943e-01	2.480499e-01	2.480444e-01	3.401256e-02	1.719013e-02	1.682243e-02	1.838470e-04	2.775378e-06	-1.034881e-04	2.139304e-02	1.059303e-02	1.080001e-02
0.0122        	4.962546e-01	2.481301e-01	2.481244e-01	3.489460e-02	1.763322e-02	1.726138e-02	1.859203e-04	2.839994e-06	-1.063827e-04	2.243445e-02	1.111084e-02	1.132361e-02
0.0123        	4.965109e-01	2.482584e-01	2.482525e-01	3.584539e-02	1.810843e-02	1.773696e-02	1.857379e-04	2.943976e-06	-1.125200e-04	2.352773e-02	1.165135e-02	1.187639e-02
0.0124        	4.967650e-01	2.483855e-01	2.483795e-01	3.675283e-02	1.856308e-02	1.818975e-02	1.866693e-04	2.993569e-06	-1.150872e-04	2.468001e-02	1.222492e-02	1.245509e-02
0.0125        	4.970964e-01	2.485513e-01	2.485451e-01	3.765516e-02	1.901239e-02	1.864277e-02	1.848096e-04	3.137581e-06	-1.189677e-04	2.581373e-02	1.278790e-02	1.302583e-02
0.0126        	4.974150e-01	2.487107e-01	2.487043e-01	3.847366e-02	1.942155e-02	1.905211e-02	1.847179e-04	3.179726e-06	-1.202475e-04	2.696878e-02	1.336414e-02	1.360464e-02
0.0127        	4.978069e-01	2.489067e-01	2.489002e-01	3.926384e-02	1.981383e-02	1.945001e-02	1.819071e-04	3.272806e-06	-1.225640e-04	2.809472e-02	1.392480e-02	1.416992e-02
0.0128        	4.981928e-01	2.490997e-01	2.490931e-01	3.996031e-02	2.016098e-02	1.979933e-02	1.808273e-04	3.268601e-06	-1.218838e-04	2.923566e-02	1.449595e-02	1.473971e-02
0.0129        	4.986378e-01	2.493222e-01	2.493155e-01	4.061527e-02	2.048524e-02	2.013002e-02	1.776109e-04	3.339635e-06	-1.232429e-04	3.031767e-02	1.503559e-02	1.528208e-02
0.013         	4.990604e-01	2.495335e-01	2.495269e-01	4.116256e-02	2.075793e-02	2.040463e-02	1.766514e-04	3.280885e-06	-1.226722e-04	3.138143e-02	1.556805e-02	1.581339e-02
0.0131        	4.995415e-01	2.497741e-01	2.497674e-01	4.165684e-02	2.100166e-02	2.065518e-02	1.732391e-04	3.327900e-06	-1.238466e-04	3.237144e-02	1.606187e-02	1.630957e-02
0.0132        	4.999933e-01	2.500000e-01	2.499933e-01	4.203627e-02	2.118980e-02	2.084648e-02	1.716608e-04	3.317633e-06	-1.224901e-04	3.332981e-02	1.654241e-02	1.678740e-02
0.0133        	5.004978e-01	2.502523e-01	2.502455e-01	4.234776e-02	2.134177e-02	2.100598e-02	1.678961e-04	3.398049e-06	-1.230236e-04	3.419173e-02	1.697284e-02	1.721889e-02
0.0134        	5.009518e-01	2.504793e-01	2.504725e-01	4.251620e-02	2.142465e-02	2.109155e-02	1.665538e-04	3.403412e-06	-1.211762e-04	3.500138e-02	1.737951e-02	1.762187e-02
0.0135        	5.014379e-01	2.507224e-01	2.507155e-01	4.260615e-02	2.146576e-02	2.114040e-02	1.626781e-04	3.483847e-06	-1.213585e-04	3.569255e-02	1.772492e-02	1.796763e-02
0.0136        	5.018663e-01	2.509366e-01	2.509298e-01	4.255349e-02	2.143675e-02	2.111674e-02	1.600055e-04	3.399709e-06	-1.195209e-04	3.631235e-02	1.803665e-02	1.827570e-02
0.0137        	5.023139e-01	2.511604e-01	2.511535e-01	4.241089e-02	2.136004e-02	2.105085e-02	1.545945e-04	3.438569e-06	-1.193476e-04	3.680630e-02	1.828380e-02	1.852250e-02
0.0138        	5.027015e-01	2.513542e-01	2.513474e-01	4.211185e-02	2.120719e-02	2.090465e-02	1.512711e-04	3.391288e-06	-1.173597e-04	3.721304e-02	1.848916e-02	1.872388e-02
0.0139        	5.031092e-01	2.515580e-01	2.515512e-01	4.171589e-02	2.100375e-02	2.071215e-02	1.458008e-04	3.423497e-06	-1.176188e-04	3.748081e-02	1.862279e-02	1.885802e-02
0.014         	5.034276e-01	2.517171e-01	2.517105e-01	4.116605e-02	2.072637e-02	2.043968e-02	1.433461e-04	3.315451e-06	-1.154576e-04	3.765997e-02	1.871453e-02	1.894545e-02
0.0141        	5.037624e-01	2.518845e-01	2.518778e-01	4.053896e-02	2.040850e-02	2.013046e-02	1.390234e-04	3.363078e-06	-1.151152e-04	3.769645e-02	1.873311e-02	1.896334e-02
0.0142        	5.040151e-01	2.520107e-01	2.520043e-01	3.977079e-02	2.002233e-02	1.974846e-02	1.369355e-04	3.195960e-06	-1.129802e-04	3.765073e-02	1.871238e-02	1.893834e-02
0.0143        	5.042491e-01	2.521278e-01	2.521213e-01	3.893933e-02	1.960324e-02	1.933609e-02	1.335774e-04	3.249308e-06	-1.128670e-04	3.747615e-02	1.862521e-02	1.885094e-02
0.0144        	5.043985e-01	2.522024e-01	2.521960e-01	3.799680e-02	1.913122e-02	1.886558e-02	1.328202e-04	3.194878e-06	-1.113154e-04	3.723510e-02	1.850624e-02	1.872887e-02
0.0145        	5.045408e-01	2.522737e-01	2.522672e-01	3.702109e-02	1.864085e-02	1.838023e-02	1.303093e-04	3.238992e-06	-1.121677e-04	3.687838e-02	1.832702e-02	1.855136e-02
0.0146        	5.045918e-01	2.522990e-01	2.522927e-01	3.596188e-02	1.811118e-02	1.785069e-02	1.302445e-04	3.157491e-06	-1.116999e-04	3.646645e-02	1.812153e-02	1.834493e-02
0.0147        	5.046517e-01	2.523290e-01	2.523227e-01	3.490315e-02	1.757926e-02	1.732389e-02	1.276859e-04	3.149587e-06	-1.135754e-04	3.595852e-02	1.786569e-02	1.809284e-02
0.0148        	5.046258e-01	2.523160e-01	2.523098e-01	3.378460e-02	1.701997e-02	1.676463e-02	1.276668e-04	3.080739e-06	-1.130214e-04	3.543062e-02	1.760229e-02	1.782833e-02
0.0149        	5.045890e-01	2.522976e-01	2.522914e-01	3.269206e-02	1.647139e-02	1.622066e-02	1.253644e-04	3.062002e-06	-1.145544e-04	3.482559e-02	1.729824e-02	1.752735e-02
0.015         	5.044657e-01	2.522357e-01	2.522300e-01	3.156632e-02	1.590873e-02	1.565759e-02	1.255689e-04	2.882375e-06	-1.142214e-04	3.421875e-02	1.699515e-02	1.722359e-02
0.0151        	5.043451e-01	2.521754e-01	2.521697e-01	3.049117e-02	1.536834e-02	1.512283e-02	1.227563e-04	2.830049e-06	-1.156501e-04	3.356161e-02	1.666516e-02	1.689646e-02
0.0152        	5.041519e-01	2.520787e-01	2.520732e-01	2.941476e-02	1.483025e-02	1.458451e-02	1.228706e-04	2.733786e-06	-1.155383e-04	3.293006e-02	1.634949e-02	1.658057e-02
0.0153        	5.039587e-01	2.519821e-01	2.519767e-01	2.839098e-02	1.431620e-02	1.407478e-02	1.207138e-04	2.716546e-06	-1.171038e-04	3.226458e-02	1.601519e-02	1.624939e-02
0.0154        	5.036919e-01	2.518485e-01	2.518434e-01	2.737602e-02	1.380846e-02	1.356756e-02	1.204474e-04	2.565650e-06	-1.166351e-04	3.163269e-02	1.569971e-02	1.593298e-02
0.0155        	5.034324e-01	2.517187e-01	2.517137e-01	2.643180e-02	1.333376e-02	1.309803e-02	1.178642e-04	2.516445e-06	-1.180601e-04	3.098140e-02	1.537264e-02	1.560876e-02
0.0156        	5.031013e-01	2.515530e-01	2.515483e-01	2.549650e-02	1.286575e-02	1.263075e-02	1.175038e-04	2.384822e-06	-1.167873e-04	3.037893e-02	1.507268e-02	1.530625e-02
0.0157        	5.027809e-01	2.513928e-01	2.513881e-01	2.463652e-02	1.243348e-02	1.220303e-02	1.152265e-04	2.338279e-06	-1.176400e-04	2.975967e-02	1.476219e-02	1.499747e-02
0.0158        	5.024018e-01	2.512031e-01	2.511987e-01	2.379040e-02	1.201018e-02	1.178022e-02	1.149822e-04	2.229020e-06	-1.169004e-04	2.919110e-02	1.447865e-02	1.471245e-02
0.0159        	5.020996e-01	2.510520e-01	2.510476e-01	2.304588e-02	1.163628e-02	1.140960e-02	1.133411e-04	2.194919e-06	-1.180949e-04	2.864950e-02	1.420665e-02	1.444284e-02
0.016         	5.016759e-01	2.508400e-01	2.508360e-01	2.229694e-02	1.126084e-02	1.103609e-02	1.123749e-04	2.000789e-06	-1.163216e-04	2.815001e-02	1.395868e-02	1.419133e-02
0.0161        	5.013506e-01	2.506772e-01	2.506734e-01	2.164178e-02	1.093122e-02	1.071056e-02	1.103305e-04	1.929513e-06	-1.177470e-04	2.766131e-02	1.371291e-02	1.394840e-02
0.0162        	5.009149e-01	2.504592e-01	2.504557e-01	2.098079e-02	1.059994e-02	1.038086e-02	1.095389e-04	1.758976e-06	-1.166266e-04	2.722285e-02	1.349480e-02	1.372805e-02
0.0163        	5.005297e-01	2.502666e-01	2.502632e-01	2.038906e-02	1.030247e-02	1.008660e-02	1.079337e-04	1.687880e-06	-1.182480e-04	2.679179e-02	1.327765e-02	1.351414e-02
0.0164        	5.001249e-01	2.500640e-01	2.500609e-01	1.981875e-02	1.001786e-02	9.800884e-03	1.084887e-04	1.570462e-06	-1.178634e-04	2.643974e-02	1.310201e-02	1.333773e-02
0.0165        	4.997826e-01	2.498928e-01	2.498898e-01	1.933271e-02	9.772959e-03	9.559750e-03	1.066048e-04	1.522665e-06	-1.195266e-04	2.610698e-02	1.293396e-02	1.317302e-02
0.0166        	4.994107e-01	2.497067e-01	2.497040e-01	1.886802e-02	9.540368e-03	9.327649e-03	1.063594e-04	1.378202e-06	-1.189821e-04	2.585664e-02	1.280934e-02	1.304730e-02
0.0167        	4.990875e-01	2.495450e-01	2.495424e-01	1.847768e-02	9.342914e-03	9.134763e-03	1.040755e-04	1.311481e-06	-1.205216e-04	2.562781e-02	1.269339e-02	1.293443e-02
0.0168        	4.987380e-01	2.493702e-01	2.493678e-01	1.809933e-02	9.153687e-03	8.945639e-03	1.040243e-04	1.177911e-06	-1.200773e-04	2.547405e-02	1.261695e-02	1.285710e-02
0.0169        	4.984401e-01	2.492212e-01	2.492189e-01	1.779603e-02	8.999760e-03	8.796269e-03	1.017455e-04	1.136335e-06	-1.222128e-04	2.533432e-02	1.254495e-02	1.278937e-02